<?xml version="1.0" encoding="UTF-8"?>

<!-- generated on 2026-04-19T01:06:23.877584+08:00 by Eclipse SUMO sumo 1.26.0
<sumoConfiguration xmlns:xsi="http://www.w3.org/2001/XMLSchema-instance" xsi:noNamespaceSchemaLocation="http://sumo.dlr.de/xsd/sumoConfiguration.xsd">

    <input>
        <net-file value="../../SunwaySmallMap/osm.net.xml"/>
        <route-files value="../../SunwaySmallMap/self_request.rou.xml,../../SunwaySmallMap/taxi_more.rou.xml"/>
    </input>

    <output>
        <tripinfo-output value="../../SunwaySmallMap/tripinfos.xml"/>
        <statistic-output value="../../SunwaySmallMap/stats.xml"/>
    </output>

    <time>
        <step-length value="1.0"/>
    </time>

    <processing>
        <ignore-route-errors value="true"/>
        <tls.actuated.jam-threshold value="30"/>
    </processing>

    <routing>
        <device.rerouting.adaptation-steps value="18"/>
        <device.rerouting.adaptation-interval value="10"/>
    </routing>

    <report>
        <verbose value="true"/>
        <duration-log.statistics value="true"/>
        <no-step-log value="true"/>
    </report>

    <taxi_device>
        <device.taxi.dispatch-algorithm value="traci"/>
        <device.taxi.idle-algorithm value="stop"/>
    </taxi_device>

    <traci_server>
        <remote-port value="64008"/>
    </traci_server>

    <gui_only>
        <gui-settings-file value="../../SunwaySmallMap/osm.view.xml"/>
    </gui_only>

</sumoConfiguration>
-->

<tripinfos xmlns:xsi="http://www.w3.org/2001/XMLSchema-instance" xsi:noNamespaceSchemaLocation="http://sumo.dlr.de/xsd/tripinfo_file.xsd">
    <personinfo id="0" depart="70.00" type="DEFAULT_PEDTYPE" speedFactor="1.06" duration="620.00" waitingTime="112.00" timeLoss="139.81" traveltime="508.00">
        <ride waitingTime="112.00" vehicle="t_8" depart="182.00" arrival="690.00" arrivalPos="77.65" duration="508.00" routeLength="5748.36" timeLoss="139.81"/>
    </personinfo>
    <personinfo id="1" depart="454.00" type="DEFAULT_PEDTYPE" speedFactor="0.88" duration="237.00" waitingTime="53.00" timeLoss="25.57" traveltime="184.00">
        <ride waitingTime="53.00" vehicle="t_13" depart="507.00" arrival="691.00" arrivalPos="74.37" duration="184.00" routeLength="1378.61" timeLoss="25.57"/>
    </personinfo>
    <personinfo id="3" depart="1093.00" type="DEFAULT_PEDTYPE" speedFactor="1.18" duration="305.00" waitingTime="10.00" timeLoss="32.63" traveltime="295.00">
        <ride waitingTime="10.00" vehicle="t_7" depart="1103.00" arrival="1398.00" arrivalPos="125.51" duration="295.00" routeLength="2915.14" timeLoss="32.63"/>
    </personinfo>
    <personinfo id="2" depart="1083.00" type="DEFAULT_PEDTYPE" speedFactor="1.01" duration="438.00" waitingTime="70.00" timeLoss="109.35" traveltime="368.00">
        <ride waitingTime="70.00" vehicle="t_9" depart="1153.00" arrival="1521.00" arrivalPos="77.65" duration="368.00" routeLength="4227.43" timeLoss="109.35"/>
    </personinfo>
    <personinfo id="6" depart="1309.00" type="DEFAULT_PEDTYPE" speedFactor="1.14" duration="328.00" waitingTime="37.00" timeLoss="51.15" traveltime="291.00">
        <ride waitingTime="37.00" vehicle="t_11" depart="1346.00" arrival="1637.00" arrivalPos="117.72" duration="291.00" routeLength="3463.89" timeLoss="51.15"/>
    </personinfo>
    <personinfo id="9" depart="1456.00" type="DEFAULT_PEDTYPE" speedFactor="1.01" duration="184.00" waitingTime="31.00" timeLoss="17.90" traveltime="153.00">
        <ride waitingTime="31.00" vehicle="t_10" depart="1487.00" arrival="1640.00" arrivalPos="27.15" duration="153.00" routeLength="1039.52" timeLoss="17.90"/>
    </personinfo>
    <personinfo id="8" depart="1372.00" type="DEFAULT_PEDTYPE" speedFactor="1.02" duration="321.00" waitingTime="135.00" timeLoss="39.86" traveltime="186.00">
        <ride waitingTime="135.00" vehicle="t_2" depart="1507.00" arrival="1693.00" arrivalPos="66.56" duration="186.00" routeLength="1903.90" timeLoss="39.86"/>
    </personinfo>
    <personinfo id="4" depart="1229.00" type="DEFAULT_PEDTYPE" speedFactor="1.08" duration="507.00" waitingTime="57.00" timeLoss="78.62" traveltime="450.00">
        <ride waitingTime="57.00" vehicle="t_8" depart="1286.00" arrival="1736.00" arrivalPos="105.07" duration="450.00" routeLength="5318.97" timeLoss="78.62"/>
    </personinfo>
    <personinfo id="5" depart="1251.00" type="DEFAULT_PEDTYPE" speedFactor="0.91" duration="548.00" waitingTime="120.00" timeLoss="75.22" traveltime="428.00">
        <ride waitingTime="120.00" vehicle="t_4" depart="1371.00" arrival="1799.00" arrivalPos="105.07" duration="428.00" routeLength="5349.74" timeLoss="75.22"/>
    </personinfo>
    <personinfo id="7" depart="1317.00" type="DEFAULT_PEDTYPE" speedFactor="1.11" duration="503.00" waitingTime="218.00" timeLoss="45.18" traveltime="285.00">
        <ride waitingTime="218.00" vehicle="t_7" depart="1535.00" arrival="1820.00" arrivalPos="139.84" duration="285.00" routeLength="3651.16" timeLoss="45.18"/>
    </personinfo>
    <personinfo id="11" depart="1531.00" type="DEFAULT_PEDTYPE" speedFactor="1.05" duration="362.00" waitingTime="87.00" timeLoss="39.55" traveltime="275.00">
        <ride waitingTime="87.00" vehicle="t_6" depart="1618.00" arrival="1893.00" arrivalPos="11.40" duration="275.00" routeLength="2934.96" timeLoss="39.55"/>
    </personinfo>
    <personinfo id="10" depart="1468.00" type="DEFAULT_PEDTYPE" speedFactor="0.69" duration="484.00" waitingTime="237.00" timeLoss="86.41" traveltime="247.00">
        <ride waitingTime="237.00" vehicle="t_11" depart="1705.00" arrival="1952.00" arrivalPos="13.58" duration="247.00" routeLength="1904.84" timeLoss="86.41"/>
    </personinfo>
    <personinfo id="14" depart="2024.00" type="DEFAULT_PEDTYPE" speedFactor="0.92" duration="334.00" waitingTime="56.00" timeLoss="44.01" traveltime="278.00">
        <ride waitingTime="56.00" vehicle="t_13" depart="2080.00" arrival="2358.00" arrivalPos="77.65" duration="278.00" routeLength="2884.55" timeLoss="44.01"/>
    </personinfo>
    <personinfo id="12" depart="1850.00" type="DEFAULT_PEDTYPE" speedFactor="1.12" duration="556.00" waitingTime="206.00" timeLoss="53.12" traveltime="350.00">
        <ride waitingTime="206.00" vehicle="t_11" depart="2056.00" arrival="2406.00" arrivalPos="757.86" duration="350.00" routeLength="3382.66" timeLoss="53.12"/>
    </personinfo>
    <personinfo id="13" depart="2003.00" type="DEFAULT_PEDTYPE" speedFactor="1.07" duration="576.00" waitingTime="88.00" timeLoss="132.42" traveltime="488.00">
        <ride waitingTime="88.00" vehicle="t_0" depart="2091.00" arrival="2579.00" arrivalPos="127.70" duration="488.00" routeLength="5759.83" timeLoss="132.42"/>
    </personinfo>
    <personinfo id="17" depart="2773.00" type="DEFAULT_PEDTYPE" speedFactor="1.02" duration="313.00" waitingTime="68.00" timeLoss="25.18" traveltime="245.00">
        <ride waitingTime="68.00" vehicle="t_4" depart="2841.00" arrival="3086.00" arrivalPos="38.69" duration="245.00" routeLength="2673.43" timeLoss="25.18"/>
    </personinfo>
    <personinfo id="15" depart="2590.00" type="DEFAULT_PEDTYPE" speedFactor="1.05" duration="560.00" waitingTime="96.00" timeLoss="86.63" traveltime="464.00">
        <ride waitingTime="96.00" vehicle="t_2" depart="2686.00" arrival="3150.00" arrivalPos="86.92" duration="464.00" routeLength="5453.15" timeLoss="86.63"/>
    </personinfo>
    <personinfo id="18" depart="2858.00" type="DEFAULT_PEDTYPE" speedFactor="1.11" duration="397.00" waitingTime="105.00" timeLoss="68.52" traveltime="292.00">
        <ride waitingTime="105.00" vehicle="t_7" depart="2963.00" arrival="3255.00" arrivalPos="68.01" duration="292.00" routeLength="2619.81" timeLoss="68.52"/>
    </personinfo>
    <personinfo id="16" depart="2696.00" type="DEFAULT_PEDTYPE" speedFactor="0.86" duration="599.00" waitingTime="161.00" timeLoss="67.49" traveltime="438.00">
        <ride waitingTime="161.00" vehicle="t_6" depart="2857.00" arrival="3295.00" arrivalPos="105.07" duration="438.00" routeLength="5715.55" timeLoss="67.49"/>
    </personinfo>
    <personinfo id="19" depart="3086.00" type="DEFAULT_PEDTYPE" speedFactor="0.86" duration="408.00" waitingTime="143.00" timeLoss="39.42" traveltime="265.00">
        <ride waitingTime="143.00" vehicle="t_2" depart="3229.00" arrival="3494.00" arrivalPos="139.40" duration="265.00" routeLength="2615.36" timeLoss="39.42"/>
    </personinfo>
    <personinfo id="20" depart="3344.00" type="DEFAULT_PEDTYPE" speedFactor="1.09" duration="224.00" waitingTime="110.00" timeLoss="9.34" traveltime="114.00">
        <ride waitingTime="110.00" vehicle="t_5" depart="3454.00" arrival="3568.00" arrivalPos="14.88" duration="114.00" routeLength="905.09" timeLoss="9.34"/>
    </personinfo>
    <personinfo id="21" depart="3358.00" type="DEFAULT_PEDTYPE" speedFactor="0.72" duration="331.00" waitingTime="60.00" timeLoss="29.19" traveltime="271.00">
        <ride waitingTime="60.00" vehicle="t_10" depart="3418.00" arrival="3689.00" arrivalPos="117.72" duration="271.00" routeLength="3463.90" timeLoss="29.19"/>
    </personinfo>
    <personinfo id="23" depart="3567.00" type="DEFAULT_PEDTYPE" speedFactor="0.82" duration="228.00" waitingTime="57.00" timeLoss="20.76" traveltime="171.00">
        <ride waitingTime="57.00" vehicle="t_9" depart="3624.00" arrival="3795.00" arrivalPos="70.28" duration="171.00" routeLength="1734.69" timeLoss="20.76"/>
    </personinfo>
    <personinfo id="22" depart="3529.00" type="DEFAULT_PEDTYPE" speedFactor="0.97" duration="345.00" waitingTime="146.00" timeLoss="36.26" traveltime="199.00">
        <ride waitingTime="146.00" vehicle="t_0" depart="3675.00" arrival="3874.00" arrivalPos="18.57" duration="199.00" routeLength="1971.97" timeLoss="36.26"/>
    </personinfo>
    <personinfo id="24" depart="4113.00" type="DEFAULT_PEDTYPE" speedFactor="1.02" duration="216.00" waitingTime="86.00" timeLoss="8.69" traveltime="130.00">
        <ride waitingTime="86.00" vehicle="t_10" depart="4199.00" arrival="4329.00" arrivalPos="23.96" duration="130.00" routeLength="761.76" timeLoss="8.69"/>
    </personinfo>
    <personinfo id="25" depart="4762.00" type="DEFAULT_PEDTYPE" speedFactor="0.99" duration="496.00" waitingTime="94.00" timeLoss="98.00" traveltime="402.00">
        <ride waitingTime="94.00" vehicle="t_4" depart="4856.00" arrival="5258.00" arrivalPos="52.47" duration="402.00" routeLength="4909.20" timeLoss="98.00"/>
    </personinfo>
    <personinfo id="26" depart="5290.00" type="DEFAULT_PEDTYPE" speedFactor="1.07" duration="290.00" waitingTime="97.00" timeLoss="16.91" traveltime="193.00">
        <ride waitingTime="97.00" vehicle="t_3" depart="5387.00" arrival="5580.00" arrivalPos="117.72" duration="193.00" routeLength="1767.05" timeLoss="16.91"/>
    </personinfo>
    <personinfo id="27" depart="5355.00" type="DEFAULT_PEDTYPE" speedFactor="1.11" duration="338.00" waitingTime="72.00" timeLoss="34.46" traveltime="266.00">
        <ride waitingTime="72.00" vehicle="t_11" depart="5427.00" arrival="5693.00" arrivalPos="45.85" duration="266.00" routeLength="3249.38" timeLoss="34.46"/>
    </personinfo>
    <personinfo id="28" depart="5371.00" type="DEFAULT_PEDTYPE" speedFactor="0.94" duration="339.00" waitingTime="77.00" timeLoss="24.96" traveltime="262.00">
        <ride waitingTime="77.00" vehicle="t_9" depart="5448.00" arrival="5710.00" arrivalPos="3.04" duration="262.00" routeLength="2563.14" timeLoss="24.96"/>
    </personinfo>
    <personinfo id="30" depart="5783.00" type="DEFAULT_PEDTYPE" speedFactor="0.94" duration="433.00" waitingTime="26.00" timeLoss="63.73" traveltime="407.00">
        <ride waitingTime="26.00" vehicle="t_5" depart="5809.00" arrival="6216.00" arrivalPos="892.96" duration="407.00" routeLength="4334.17" timeLoss="63.73"/>
    </personinfo>
    <personinfo id="29" depart="5737.00" type="DEFAULT_PEDTYPE" speedFactor="1.12" duration="488.00" waitingTime="71.00" timeLoss="153.58" traveltime="417.00">
        <ride waitingTime="71.00" vehicle="t_3" depart="5808.00" arrival="6225.00" arrivalPos="117.15" duration="417.00" routeLength="4982.07" timeLoss="153.58"/>
    </personinfo>
    <personinfo id="32" depart="6017.00" type="DEFAULT_PEDTYPE" speedFactor="1.00" duration="235.00" waitingTime="33.00" timeLoss="34.92" traveltime="202.00">
        <ride waitingTime="33.00" vehicle="t_6" depart="6050.00" arrival="6252.00" arrivalPos="85.99" duration="202.00" routeLength="1666.45" timeLoss="34.92"/>
    </personinfo>
    <personinfo id="31" depart="6004.00" type="DEFAULT_PEDTYPE" speedFactor="1.04" duration="367.00" waitingTime="54.00" timeLoss="52.27" traveltime="313.00">
        <ride waitingTime="54.00" vehicle="t_0" depart="6058.00" arrival="6371.00" arrivalPos="4.99" duration="313.00" routeLength="4765.22" timeLoss="52.27"/>
    </personinfo>
    <personinfo id="33" depart="6340.00" type="DEFAULT_PEDTYPE" speedFactor="1.03" duration="287.00" waitingTime="32.00" timeLoss="38.13" traveltime="255.00">
        <ride waitingTime="32.00" vehicle="t_0" depart="6372.00" arrival="6627.00" arrivalPos="53.15" duration="255.00" routeLength="2120.86" timeLoss="38.13"/>
    </personinfo>
    <personinfo id="34" depart="7653.00" type="DEFAULT_PEDTYPE" speedFactor="0.96" duration="324.00" waitingTime="124.00" timeLoss="44.77" traveltime="200.00">
        <ride waitingTime="124.00" vehicle="t_10" depart="7777.00" arrival="7977.00" arrivalPos="18.89" duration="200.00" routeLength="1907.04" timeLoss="44.77"/>
    </personinfo>
    <personinfo id="35" depart="7996.00" type="DEFAULT_PEDTYPE" speedFactor="0.85" duration="485.00" waitingTime="41.00" timeLoss="62.63" traveltime="444.00">
        <ride waitingTime="41.00" vehicle="t_7" depart="8037.00" arrival="8481.00" arrivalPos="52.47" duration="444.00" routeLength="6223.32" timeLoss="62.63"/>
    </personinfo>
    <personinfo id="36" depart="8186.00" type="DEFAULT_PEDTYPE" speedFactor="1.04" duration="356.00" waitingTime="116.00" timeLoss="18.02" traveltime="240.00">
        <ride waitingTime="116.00" vehicle="t_12" depart="8302.00" arrival="8542.00" arrivalPos="88.03" duration="240.00" routeLength="3524.47" timeLoss="18.02"/>
    </personinfo>
    <personinfo id="39" depart="8779.00" type="DEFAULT_PEDTYPE" speedFactor="0.91" duration="200.00" waitingTime="30.00" timeLoss="25.10" traveltime="170.00">
        <ride waitingTime="30.00" vehicle="t_10" depart="8809.00" arrival="8979.00" arrivalPos="14.88" duration="170.00" routeLength="1384.41" timeLoss="25.10"/>
    </personinfo>
    <personinfo id="37" depart="8618.00" type="DEFAULT_PEDTYPE" speedFactor="1.08" duration="419.00" waitingTime="75.00" timeLoss="87.05" traveltime="344.00">
        <ride waitingTime="75.00" vehicle="t_3" depart="8693.00" arrival="9037.00" arrivalPos="22.37" duration="344.00" routeLength="3724.42" timeLoss="87.05"/>
    </personinfo>
    <personinfo id="38" depart="8627.00" type="DEFAULT_PEDTYPE" speedFactor="1.04" duration="493.00" waitingTime="96.00" timeLoss="102.02" traveltime="397.00">
        <ride waitingTime="96.00" vehicle="t_4" depart="8723.00" arrival="9120.00" arrivalPos="29.51" duration="397.00" routeLength="4222.96" timeLoss="102.02"/>
    </personinfo>
    <personinfo id="42" depart="9140.00" type="DEFAULT_PEDTYPE" speedFactor="0.82" duration="132.00" waitingTime="29.00" timeLoss="4.31" traveltime="103.00">
        <ride waitingTime="29.00" vehicle="t_10" depart="9169.00" arrival="9272.00" arrivalPos="15.91" duration="103.00" routeLength="470.55" timeLoss="4.31"/>
    </personinfo>
    <personinfo id="41" depart="9137.00" type="DEFAULT_PEDTYPE" speedFactor="0.97" duration="337.00" waitingTime="147.00" timeLoss="13.63" traveltime="190.00">
        <ride waitingTime="147.00" vehicle="t_9" depart="9284.00" arrival="9474.00" arrivalPos="37.52" duration="190.00" routeLength="2145.82" timeLoss="13.63"/>
    </personinfo>
    <personinfo id="40" depart="9055.00" type="DEFAULT_PEDTYPE" speedFactor="0.99" duration="628.00" waitingTime="205.00" timeLoss="117.91" traveltime="423.00">
        <ride waitingTime="205.00" vehicle="t_4" depart="9260.00" arrival="9683.00" arrivalPos="41.64" duration="423.00" routeLength="5462.55" timeLoss="117.91"/>
    </personinfo>
    <personinfo id="43" depart="9572.00" type="DEFAULT_PEDTYPE" speedFactor="0.95" duration="285.00" waitingTime="28.00" timeLoss="29.17" traveltime="257.00">
        <ride waitingTime="28.00" vehicle="t_10" depart="9600.00" arrival="9857.00" arrivalPos="32.30" duration="257.00" routeLength="2966.34" timeLoss="29.17"/>
    </personinfo>
    <personinfo id="44" depart="9690.00" type="DEFAULT_PEDTYPE" speedFactor="0.94" duration="415.00" waitingTime="86.00" timeLoss="64.02" traveltime="329.00">
        <ride waitingTime="86.00" vehicle="t_8" depart="9776.00" arrival="10105.00" arrivalPos="26.51" duration="329.00" routeLength="3587.56" timeLoss="64.02"/>
    </personinfo>
    <personinfo id="45" depart="10210.00" type="DEFAULT_PEDTYPE" speedFactor="0.92" duration="274.00" waitingTime="78.00" timeLoss="49.01" traveltime="196.00">
        <ride waitingTime="78.00" vehicle="t_9" depart="10288.00" arrival="10484.00" arrivalPos="13.58" duration="196.00" routeLength="2011.52" timeLoss="49.01"/>
    </personinfo>
    <personinfo id="46" depart="10554.00" type="DEFAULT_PEDTYPE" speedFactor="1.08" duration="411.00" waitingTime="77.00" timeLoss="90.53" traveltime="334.00">
        <ride waitingTime="77.00" vehicle="t_3" depart="10631.00" arrival="10965.00" arrivalPos="0.47" duration="334.00" routeLength="3771.85" timeLoss="90.53"/>
    </personinfo>
    <personinfo id="47" depart="11006.00" type="DEFAULT_PEDTYPE" speedFactor="0.98" duration="268.00" waitingTime="29.00" timeLoss="38.64" traveltime="239.00">
        <ride waitingTime="29.00" vehicle="t_10" depart="11035.00" arrival="11274.00" arrivalPos="339.41" duration="239.00" routeLength="2015.92" timeLoss="38.64"/>
    </personinfo>
    <personinfo id="48" depart="11292.00" type="DEFAULT_PEDTYPE" speedFactor="0.96" duration="409.00" waitingTime="76.00" timeLoss="90.41" traveltime="333.00">
        <ride waitingTime="76.00" vehicle="t_12" depart="11368.00" arrival="11701.00" arrivalPos="273.01" duration="333.00" routeLength="3102.99" timeLoss="90.41"/>
    </personinfo>
    <personinfo id="49" depart="11924.00" type="DEFAULT_PEDTYPE" speedFactor="0.95" duration="420.00" waitingTime="51.00" timeLoss="57.14" traveltime="369.00">
        <ride waitingTime="51.00" vehicle="t_10" depart="11975.00" arrival="12344.00" arrivalPos="127.70" duration="369.00" routeLength="5421.75" timeLoss="57.14"/>
    </personinfo>
    <personinfo id="51" depart="12505.00" type="DEFAULT_PEDTYPE" speedFactor="1.01" duration="325.00" waitingTime="51.00" timeLoss="23.37" traveltime="274.00">
        <ride waitingTime="51.00" vehicle="t_8" depart="12556.00" arrival="12830.00" arrivalPos="240.81" duration="274.00" routeLength="3149.34" timeLoss="23.37"/>
    </personinfo>
    <personinfo id="52" depart="12710.00" type="DEFAULT_PEDTYPE" speedFactor="0.99" duration="302.00" waitingTime="54.00" timeLoss="23.55" traveltime="248.00">
        <ride waitingTime="54.00" vehicle="t_6" depart="12764.00" arrival="13012.00" arrivalPos="105.07" duration="248.00" routeLength="2367.24" timeLoss="23.55"/>
    </personinfo>
    <personinfo id="50" depart="12471.00" type="DEFAULT_PEDTYPE" speedFactor="0.72" duration="575.00" waitingTime="184.00" timeLoss="76.43" traveltime="391.00">
        <ride waitingTime="184.00" vehicle="t_0" depart="12655.00" arrival="13046.00" arrivalPos="38.27" duration="391.00" routeLength="4954.96" timeLoss="76.43"/>
    </personinfo>
    <personinfo id="53" depart="12755.00" type="DEFAULT_PEDTYPE" speedFactor="0.85" duration="394.00" waitingTime="90.00" timeLoss="40.90" traveltime="304.00">
        <ride waitingTime="90.00" vehicle="t_3" depart="12845.00" arrival="13149.00" arrivalPos="979.46" duration="304.00" routeLength="3050.79" timeLoss="40.90"/>
    </personinfo>
    <personinfo id="54" depart="13004.00" type="DEFAULT_PEDTYPE" speedFactor="1.08" duration="263.00" waitingTime="90.00" timeLoss="9.51" traveltime="173.00">
        <ride waitingTime="90.00" vehicle="t_9" depart="13094.00" arrival="13267.00" arrivalPos="75.73" duration="173.00" routeLength="1621.72" timeLoss="9.51"/>
    </personinfo>
    <personinfo id="55" depart="13154.00" type="DEFAULT_PEDTYPE" speedFactor="0.91" duration="453.00" waitingTime="73.00" timeLoss="118.58" traveltime="380.00">
        <ride waitingTime="73.00" vehicle="t_6" depart="13227.00" arrival="13607.00" arrivalPos="56.18" duration="380.00" routeLength="4211.33" timeLoss="118.58"/>
    </personinfo>
    <personinfo id="56" depart="13716.00" type="DEFAULT_PEDTYPE" speedFactor="1.01" duration="516.00" waitingTime="74.00" timeLoss="75.22" traveltime="442.00">
        <ride waitingTime="74.00" vehicle="t_4" depart="13790.00" arrival="14232.00" arrivalPos="86.92" duration="442.00" routeLength="5448.00" timeLoss="75.22"/>
    </personinfo>
    <personinfo id="57" depart="13812.00" type="DEFAULT_PEDTYPE" speedFactor="1.02" duration="454.00" waitingTime="188.00" timeLoss="41.71" traveltime="266.00">
        <ride waitingTime="188.00" vehicle="t_1" depart="14000.00" arrival="14266.00" arrivalPos="11.40" duration="266.00" routeLength="3058.79" timeLoss="41.71"/>
    </personinfo>
    <personinfo id="59" depart="14283.00" type="DEFAULT_PEDTYPE" speedFactor="0.97" duration="355.00" waitingTime="147.00" timeLoss="19.38" traveltime="208.00">
        <ride waitingTime="147.00" vehicle="t_8" depart="14430.00" arrival="14638.00" arrivalPos="105.07" duration="208.00" routeLength="1749.69" timeLoss="19.38"/>
    </personinfo>
    <personinfo id="60" depart="14450.00" type="DEFAULT_PEDTYPE" speedFactor="1.08" duration="230.00" waitingTime="71.00" timeLoss="5.32" traveltime="159.00">
        <ride waitingTime="71.00" vehicle="t_2" depart="14521.00" arrival="14680.00" arrivalPos="15.91" duration="159.00" routeLength="470.56" timeLoss="5.32"/>
    </personinfo>
    <personinfo id="58" depart="14157.00" type="DEFAULT_PEDTYPE" speedFactor="1.01" duration="571.00" waitingTime="202.00" timeLoss="56.69" traveltime="369.00">
        <ride waitingTime="202.00" vehicle="t_4" depart="14359.00" arrival="14728.00" arrivalPos="53.15" duration="369.00" routeLength="3916.91" timeLoss="56.69"/>
    </personinfo>
    <personinfo id="61" depart="14466.00" type="DEFAULT_PEDTYPE" speedFactor="0.78" duration="407.00" waitingTime="101.00" timeLoss="40.43" traveltime="306.00">
        <ride waitingTime="101.00" vehicle="t_11" depart="14567.00" arrival="14873.00" arrivalPos="18.37" duration="306.00" routeLength="4627.89" timeLoss="40.43"/>
    </personinfo>
    <personinfo id="63" depart="14725.00" type="DEFAULT_PEDTYPE" speedFactor="1.17" duration="288.00" waitingTime="104.00" timeLoss="37.99" traveltime="184.00">
        <ride waitingTime="104.00" vehicle="t_6" depart="14829.00" arrival="15013.00" arrivalPos="18.57" duration="184.00" routeLength="1601.06" timeLoss="37.99"/>
    </personinfo>
    <personinfo id="62" depart="14617.00" type="DEFAULT_PEDTYPE" speedFactor="0.94" duration="473.00" waitingTime="176.00" timeLoss="60.94" traveltime="297.00">
        <ride waitingTime="176.00" vehicle="t_2" depart="14793.00" arrival="15090.00" arrivalPos="240.81" duration="297.00" routeLength="2983.45" timeLoss="60.94"/>
    </personinfo>
    <personinfo id="64" depart="14788.00" type="DEFAULT_PEDTYPE" speedFactor="0.97" duration="425.00" waitingTime="196.00" timeLoss="76.64" traveltime="229.00">
        <ride waitingTime="196.00" vehicle="t_11" depart="14984.00" arrival="15213.00" arrivalPos="18.37" duration="229.00" routeLength="1816.46" timeLoss="76.64"/>
    </personinfo>
    <personinfo id="65" depart="15080.00" type="DEFAULT_PEDTYPE" speedFactor="0.92" duration="285.00" waitingTime="51.00" timeLoss="39.91" traveltime="234.00">
        <ride waitingTime="51.00" vehicle="t_9" depart="15131.00" arrival="15365.00" arrivalPos="52.47" duration="234.00" routeLength="2391.91" timeLoss="39.91"/>
    </personinfo>
    <personinfo id="66" depart="15159.00" type="DEFAULT_PEDTYPE" speedFactor="0.93" duration="373.00" waitingTime="107.00" timeLoss="45.41" traveltime="266.00">
        <ride waitingTime="107.00" vehicle="t_14" depart="15266.00" arrival="15532.00" arrivalPos="70.28" duration="266.00" routeLength="3182.63" timeLoss="45.41"/>
    </personinfo>
    <personinfo id="67" depart="15289.00" type="DEFAULT_PEDTYPE" speedFactor="0.90" duration="312.00" waitingTime="70.00" timeLoss="78.82" traveltime="242.00">
        <ride waitingTime="70.00" vehicle="t_4" depart="15359.00" arrival="15601.00" arrivalPos="18.37" duration="242.00" routeLength="1816.41" timeLoss="78.82"/>
    </personinfo>
    <personinfo id="68" depart="15466.00" type="DEFAULT_PEDTYPE" speedFactor="1.00" duration="358.00" waitingTime="144.00" timeLoss="20.72" traveltime="214.00">
        <ride waitingTime="144.00" vehicle="t_8" depart="15610.00" arrival="15824.00" arrivalPos="33.53" duration="214.00" routeLength="1926.47" timeLoss="20.72"/>
    </personinfo>
    <personinfo id="70" depart="16135.00" type="DEFAULT_PEDTYPE" speedFactor="0.93" duration="234.00" waitingTime="46.00" timeLoss="22.19" traveltime="188.00">
        <ride waitingTime="46.00" vehicle="t_4" depart="16181.00" arrival="16369.00" arrivalPos="63.74" duration="188.00" routeLength="1607.54" timeLoss="22.19"/>
    </personinfo>
    <personinfo id="69" depart="16092.00" type="DEFAULT_PEDTYPE" speedFactor="1.18" duration="504.00" waitingTime="113.00" timeLoss="59.53" traveltime="391.00">
        <ride waitingTime="113.00" vehicle="t_7" depart="16205.00" arrival="16596.00" arrivalPos="88.03" duration="391.00" routeLength="5888.65" timeLoss="59.53"/>
    </personinfo>
    <personinfo id="71" depart="16314.00" type="DEFAULT_PEDTYPE" speedFactor="0.91" duration="409.00" waitingTime="146.00" timeLoss="31.63" traveltime="263.00">
        <ride waitingTime="146.00" vehicle="t_0" depart="16460.00" arrival="16723.00" arrivalPos="48.99" duration="263.00" routeLength="2109.49" timeLoss="31.63"/>
    </personinfo>
    <personinfo id="73" depart="16470.00" type="DEFAULT_PEDTYPE" speedFactor="1.01" duration="456.00" waitingTime="108.00" timeLoss="64.60" traveltime="348.00">
        <ride waitingTime="108.00" vehicle="t_0" depart="16578.00" arrival="16926.00" arrivalPos="85.47" duration="348.00" routeLength="2949.52" timeLoss="64.60"/>
    </personinfo>
    <personinfo id="72" depart="16458.00" type="DEFAULT_PEDTYPE" speedFactor="0.99" duration="583.00" waitingTime="128.00" timeLoss="85.84" traveltime="455.00">
        <ride waitingTime="128.00" vehicle="t_6" depart="16586.00" arrival="17041.00" arrivalPos="117.72" duration="455.00" routeLength="6034.15" timeLoss="85.84"/>
    </personinfo>
    <personinfo id="74" depart="16602.00" type="DEFAULT_PEDTYPE" speedFactor="1.20" duration="568.00" waitingTime="167.00" timeLoss="24.99" traveltime="401.00">
        <ride waitingTime="167.00" vehicle="t_6" depart="16769.00" arrival="17170.00" arrivalPos="97.31" duration="401.00" routeLength="3849.23" timeLoss="24.99"/>
    </personinfo>
    <personinfo id="75" depart="17109.00" type="DEFAULT_PEDTYPE" speedFactor="0.95" duration="469.00" waitingTime="147.00" timeLoss="44.30" traveltime="322.00">
        <ride waitingTime="147.00" vehicle="t_6" depart="17256.00" arrival="17578.00" arrivalPos="66.56" duration="322.00" routeLength="4340.75" timeLoss="44.30"/>
    </personinfo>
    <personinfo id="76" depart="17434.00" type="DEFAULT_PEDTYPE" speedFactor="0.92" duration="386.00" waitingTime="77.00" timeLoss="52.66" traveltime="309.00">
        <ride waitingTime="77.00" vehicle="t_7" depart="17511.00" arrival="17820.00" arrivalPos="3.04" duration="309.00" routeLength="2791.32" timeLoss="52.66"/>
    </personinfo>
    <personinfo id="77" depart="17484.00" type="DEFAULT_PEDTYPE" speedFactor="1.00" duration="501.00" waitingTime="160.00" timeLoss="66.40" traveltime="341.00">
        <ride waitingTime="160.00" vehicle="t_14" depart="17644.00" arrival="17985.00" arrivalPos="81.57" duration="341.00" routeLength="4429.31" timeLoss="66.40"/>
    </personinfo>
    <personinfo id="78" depart="17751.00" type="DEFAULT_PEDTYPE" speedFactor="1.11" duration="458.00" waitingTime="155.00" timeLoss="58.10" traveltime="303.00">
        <ride waitingTime="155.00" vehicle="t_7" depart="17906.00" arrival="18209.00" arrivalPos="13.58" duration="303.00" routeLength="3806.96" timeLoss="58.10"/>
    </personinfo>
    <personinfo id="79" depart="18306.00" type="DEFAULT_PEDTYPE" speedFactor="0.92" duration="414.00" waitingTime="52.00" timeLoss="32.84" traveltime="362.00">
        <ride waitingTime="52.00" vehicle="t_6" depart="18358.00" arrival="18720.00" arrivalPos="88.03" duration="362.00" routeLength="5557.73" timeLoss="32.84"/>
    </personinfo>
    <personinfo id="81" depart="18475.00" type="DEFAULT_PEDTYPE" speedFactor="1.07" duration="336.00" waitingTime="101.00" timeLoss="24.50" traveltime="235.00">
        <ride waitingTime="101.00" vehicle="t_11" depart="18576.00" arrival="18811.00" arrivalPos="46.21" duration="235.00" routeLength="2633.62" timeLoss="24.50"/>
    </personinfo>
    <personinfo id="80" depart="18389.00" type="DEFAULT_PEDTYPE" speedFactor="1.01" duration="585.00" waitingTime="162.00" timeLoss="83.51" traveltime="423.00">
        <ride waitingTime="162.00" vehicle="t_4" depart="18551.00" arrival="18974.00" arrivalPos="66.56" duration="423.00" routeLength="5593.43" timeLoss="83.51"/>
    </personinfo>
    <personinfo id="82" depart="18600.00" type="DEFAULT_PEDTYPE" speedFactor="0.92" duration="450.00" waitingTime="57.00" timeLoss="79.68" traveltime="393.00">
        <ride waitingTime="57.00" vehicle="t_8" depart="18657.00" arrival="19050.00" arrivalPos="81.57" duration="393.00" routeLength="4160.23" timeLoss="79.68"/>
    </personinfo>