<?xml version="1.0" encoding="UTF-8"?>

<!-- generated on 2026-04-18T23:45:49.749775+08:00 by Eclipse SUMO GUI 1.26.0
<sumoConfiguration xmlns:xsi="http://www.w3.org/2001/XMLSchema-instance" xsi:noNamespaceSchemaLocation="http://sumo.dlr.de/xsd/sumoConfiguration.xsd">

    <input>
        <net-file value="D:\FYP\DeepPoolPer_Comparison\SunwaySmallMap\osm.net.xml"/>
        <route-files value="D:\FYP\DeepPoolPer_Comparison\SunwaySmallMap\self_request.rou.xml,D:\FYP\DeepPoolPer_Comparison\SunwaySmallMap\taxi_more.rou.xml"/>
    </input>

    <output>
        <tripinfo-output value="D:\FYP\DeepPoolPer_Comparison\SunwaySmallMap\tripinfos.xml"/>
        <statistic-output value="D:\FYP\DeepPoolPer_Comparison\SunwaySmallMap\stats.xml"/>
    </output>

    <processing>
        <ignore-route-errors value="true"/>
        <tls.actuated.jam-threshold value="30"/>
    </processing>

    <routing>
        <device.rerouting.adaptation-steps value="18"/>
        <device.rerouting.adaptation-interval value="10"/>
    </routing>

    <report>
        <verbose value="true"/>
        <duration-log.statistics value="true"/>
        <no-step-log value="true"/>
    </report>

    <taxi_device>
        <device.taxi.dispatch-algorithm value="greedyShared"/>
        <device.taxi.idle-algorithm value="stop"/>
    </taxi_device>

    <gui_only>
        <gui-settings-file value="D:\FYP\DeepPoolPer_Comparison\SunwaySmallMap\osm.view.xml"/>
    </gui_only>

</sumoConfiguration>
-->

<tripinfos xmlns:xsi="http://www.w3.org/2001/XMLSchema-instance" xsi:noNamespaceSchemaLocation="http://sumo.dlr.de/xsd/tripinfo_file.xsd">
    <personinfo id="0" depart="70.00" type="DEFAULT_PEDTYPE" speedFactor="1.06" duration="620.00" waitingTime="153.00" timeLoss="97.67" traveltime="467.00">
        <ride waitingTime="153.00" vehicle="t_8" depart="223.00" arrival="690.00" arrivalPos="77.65" duration="467.00" routeLength="5748.36" timeLoss="97.67"/>
    </personinfo>
    <personinfo id="1" depart="454.00" type="DEFAULT_PEDTYPE" speedFactor="0.88" duration="257.00" waitingTime="72.00" timeLoss="26.68" traveltime="185.00">
        <ride waitingTime="72.00" vehicle="t_13" depart="526.00" arrival="711.00" arrivalPos="74.37" duration="185.00" routeLength="1378.63" timeLoss="26.68"/>
    </personinfo>
    <personinfo id="3" depart="1093.00" type="DEFAULT_PEDTYPE" speedFactor="0.94" duration="343.00" waitingTime="51.00" timeLoss="29.82" traveltime="292.00">
        <ride waitingTime="51.00" vehicle="t_7" depart="1144.00" arrival="1436.00" arrivalPos="125.51" duration="292.00" routeLength="2915.14" timeLoss="29.82"/>
    </personinfo>
    <personinfo id="2" depart="1083.00" type="DEFAULT_PEDTYPE" speedFactor="0.94" duration="480.00" waitingTime="122.00" timeLoss="99.63" traveltime="358.00">
        <ride waitingTime="122.00" vehicle="t_9" depart="1205.00" arrival="1563.00" arrivalPos="77.65" duration="358.00" routeLength="4227.40" timeLoss="99.63"/>
    </personinfo>
    <personinfo id="6" depart="1309.00" type="DEFAULT_PEDTYPE" speedFactor="1.01" duration="335.00" waitingTime="71.00" timeLoss="17.70" traveltime="264.00">
        <ride waitingTime="71.00" vehicle="t_13" depart="1380.00" arrival="1644.00" arrivalPos="117.72" duration="264.00" routeLength="3463.91" timeLoss="17.70"/>
    </personinfo>
    <personinfo id="9" depart="1456.00" type="DEFAULT_PEDTYPE" speedFactor="0.83" duration="223.00" waitingTime="72.00" timeLoss="16.24" traveltime="151.00">
        <ride waitingTime="72.00" vehicle="t_10" depart="1528.00" arrival="1679.00" arrivalPos="27.15" duration="151.00" routeLength="1039.47" timeLoss="16.24"/>
    </personinfo>
    <personinfo id="8" depart="1372.00" type="DEFAULT_PEDTYPE" speedFactor="0.89" duration="329.00" waitingTime="133.00" timeLoss="40.09" traveltime="196.00">
        <ride waitingTime="133.00" vehicle="t_4" depart="1505.00" arrival="1701.00" arrivalPos="66.56" duration="196.00" routeLength="1903.87" timeLoss="40.09"/>
    </personinfo>
    <personinfo id="7" depart="1317.00" type="DEFAULT_PEDTYPE" speedFactor="0.97" duration="394.00" waitingTime="103.00" timeLoss="58.56" traveltime="291.00">
        <ride waitingTime="103.00" vehicle="t_3" depart="1420.00" arrival="1711.00" arrivalPos="139.84" duration="291.00" routeLength="3651.18" timeLoss="58.56"/>
    </personinfo>
    <personinfo id="4" depart="1229.00" type="DEFAULT_PEDTYPE" speedFactor="1.16" duration="485.00" waitingTime="87.00" timeLoss="58.68" traveltime="398.00">
        <ride waitingTime="87.00" vehicle="t_2" depart="1316.00" arrival="1714.00" arrivalPos="105.07" duration="398.00" routeLength="5318.94" timeLoss="58.68"/>
    </personinfo>
    <personinfo id="10" depart="1468.00" type="DEFAULT_PEDTYPE" speedFactor="0.87" duration="323.00" waitingTime="94.00" timeLoss="64.49" traveltime="229.00">
        <ride waitingTime="94.00" vehicle="t_7" depart="1562.00" arrival="1791.00" arrivalPos="13.58" duration="229.00" routeLength="1904.78" timeLoss="64.49"/>
    </personinfo>
    <personinfo id="5" depart="1251.00" type="DEFAULT_PEDTYPE" speedFactor="1.02" duration="585.00" waitingTime="207.00" timeLoss="52.85" traveltime="378.00">
        <ride waitingTime="207.00" vehicle="t_11" depart="1458.00" arrival="1836.00" arrivalPos="105.07" duration="378.00" routeLength="5349.77" timeLoss="52.85"/>
    </personinfo>
    <personinfo id="11" depart="1531.00" type="DEFAULT_PEDTYPE" speedFactor="0.92" duration="382.00" waitingTime="109.00" timeLoss="38.68" traveltime="273.00">
        <ride waitingTime="109.00" vehicle="t_6" depart="1640.00" arrival="1913.00" arrivalPos="11.40" duration="273.00" routeLength="2934.96" timeLoss="38.68"/>
    </personinfo>
    <personinfo id="12" depart="1850.00" type="DEFAULT_PEDTYPE" speedFactor="0.95" duration="441.00" waitingTime="69.00" timeLoss="81.61" traveltime="372.00">
        <ride waitingTime="69.00" vehicle="t_2" depart="1919.00" arrival="2291.00" arrivalPos="757.86" duration="372.00" routeLength="3382.65" timeLoss="81.61"/>
    </personinfo>
    <personinfo id="14" depart="2024.00" type="DEFAULT_PEDTYPE" speedFactor="0.93" duration="346.00" waitingTime="72.00" timeLoss="34.07" traveltime="274.00">
        <ride waitingTime="72.00" vehicle="t_14" depart="2096.00" arrival="2370.00" arrivalPos="77.65" duration="274.00" routeLength="2884.55" timeLoss="34.07"/>
    </personinfo>
    <personinfo id="13" depart="2003.00" type="DEFAULT_PEDTYPE" speedFactor="1.13" duration="622.00" waitingTime="120.00" timeLoss="147.83" traveltime="502.00">
        <ride waitingTime="120.00" vehicle="t_0" depart="2123.00" arrival="2625.00" arrivalPos="127.70" duration="502.00" routeLength="5759.83" timeLoss="147.83"/>
    </personinfo>
    <personinfo id="17" depart="2773.00" type="DEFAULT_PEDTYPE" speedFactor="1.01" duration="334.00" waitingTime="103.00" timeLoss="29.34" traveltime="231.00">
        <ride waitingTime="103.00" vehicle="t_11" depart="2876.00" arrival="3107.00" arrivalPos="38.69" duration="231.00" routeLength="2673.48" timeLoss="29.34"/>
    </personinfo>
    <personinfo id="15" depart="2590.00" type="DEFAULT_PEDTYPE" speedFactor="1.18" duration="539.00" waitingTime="137.00" timeLoss="41.64" traveltime="402.00">
        <ride waitingTime="137.00" vehicle="t_4" depart="2727.00" arrival="3129.00" arrivalPos="86.92" duration="402.00" routeLength="5453.21" timeLoss="41.64"/>
    </personinfo>
    <personinfo id="18" depart="2858.00" type="DEFAULT_PEDTYPE" speedFactor="1.17" duration="393.00" waitingTime="119.00" timeLoss="58.64" traveltime="274.00">
        <ride waitingTime="119.00" vehicle="t_3" depart="2977.00" arrival="3251.00" arrivalPos="68.01" duration="274.00" routeLength="2619.79" timeLoss="58.64"/>
    </personinfo>
    <personinfo id="16" depart="2696.00" type="DEFAULT_PEDTYPE" speedFactor="1.15" duration="578.00" waitingTime="146.00" timeLoss="91.25" traveltime="432.00">
        <ride waitingTime="146.00" vehicle="t_9" depart="2842.00" arrival="3274.00" arrivalPos="105.07" duration="432.00" routeLength="5715.51" timeLoss="91.25"/>
    </personinfo>
    <personinfo id="19" depart="3086.00" type="DEFAULT_PEDTYPE" speedFactor="0.99" duration="365.00" waitingTime="99.00" timeLoss="39.97" traveltime="266.00">
        <ride waitingTime="99.00" vehicle="t_5" depart="3185.00" arrival="3451.00" arrivalPos="139.40" duration="266.00" routeLength="2615.38" timeLoss="39.97"/>
    </personinfo>
    <personinfo id="20" depart="3344.00" type="DEFAULT_PEDTYPE" speedFactor="1.02" duration="160.00" waitingTime="42.00" timeLoss="9.90" traveltime="118.00">
        <ride waitingTime="42.00" vehicle="t_7" depart="3386.00" arrival="3504.00" arrivalPos="14.88" duration="118.00" routeLength="905.19" timeLoss="9.90"/>
    </personinfo>
    <personinfo id="21" depart="3358.00" type="DEFAULT_PEDTYPE" speedFactor="0.97" duration="335.00" waitingTime="61.00" timeLoss="29.26" traveltime="274.00">
        <ride waitingTime="61.00" vehicle="t_10" depart="3419.00" arrival="3693.00" arrivalPos="117.72" duration="274.00" routeLength="3463.91" timeLoss="29.26"/>
    </personinfo>
    <personinfo id="23" depart="3567.00" type="DEFAULT_PEDTYPE" speedFactor="1.10" duration="269.00" waitingTime="92.00" timeLoss="20.41" traveltime="177.00">
        <ride waitingTime="92.00" vehicle="t_14" depart="3659.00" arrival="3836.00" arrivalPos="70.28" duration="177.00" routeLength="1734.68" timeLoss="20.41"/>
    </personinfo>
    <personinfo id="22" depart="3529.00" type="DEFAULT_PEDTYPE" speedFactor="1.18" duration="351.00" waitingTime="151.00" timeLoss="38.44" traveltime="200.00">
        <ride waitingTime="151.00" vehicle="t_0" depart="3680.00" arrival="3880.00" arrivalPos="18.57" duration="200.00" routeLength="1971.95" timeLoss="38.44"/>
    </personinfo>
    <personinfo id="24" depart="4113.00" type="DEFAULT_PEDTYPE" speedFactor="0.90" duration="237.00" waitingTime="108.00" timeLoss="8.10" traveltime="129.00">
        <ride waitingTime="108.00" vehicle="t_10" depart="4221.00" arrival="4350.00" arrivalPos="23.96" duration="129.00" routeLength="761.77" timeLoss="8.10"/>
    </personinfo>
    <personinfo id="25" depart="4762.00" type="DEFAULT_PEDTYPE" speedFactor="1.03" duration="497.00" waitingTime="117.00" timeLoss="100.03" traveltime="380.00">
        <ride waitingTime="117.00" vehicle="t_11" depart="4879.00" arrival="5259.00" arrivalPos="52.47" duration="380.00" routeLength="4909.24" timeLoss="100.03"/>
    </personinfo>
    <personinfo id="26" depart="5290.00" type="DEFAULT_PEDTYPE" speedFactor="0.96" duration="344.00" waitingTime="147.00" timeLoss="22.29" traveltime="197.00">
        <ride waitingTime="147.00" vehicle="t_9" depart="5437.00" arrival="5634.00" arrivalPos="117.72" duration="197.00" routeLength="1767.09" timeLoss="22.29"/>
    </personinfo>
    <personinfo id="27" depart="5355.00" type="DEFAULT_PEDTYPE" speedFactor="1.09" duration="378.00" waitingTime="113.00" timeLoss="35.84" traveltime="265.00">
        <ride waitingTime="113.00" vehicle="t_2" depart="5468.00" arrival="5733.00" arrivalPos="45.85" duration="265.00" routeLength="3249.42" timeLoss="35.84"/>
    </personinfo>
    <personinfo id="28" depart="5371.00" type="DEFAULT_PEDTYPE" speedFactor="1.04" duration="414.00" waitingTime="138.00" timeLoss="26.82" traveltime="276.00">
        <ride waitingTime="138.00" vehicle="t_14" depart="5509.00" arrival="5785.00" arrivalPos="3.04" duration="276.00" routeLength="2563.12" timeLoss="26.82"/>
    </personinfo>
    <personinfo id="29" depart="5737.00" type="DEFAULT_PEDTYPE" speedFactor="1.04" duration="493.00" waitingTime="92.00" timeLoss="143.01" traveltime="401.00">
        <ride waitingTime="92.00" vehicle="t_9" depart="5829.00" arrival="6230.00" arrivalPos="117.15" duration="401.00" routeLength="4982.10" timeLoss="143.01"/>
    </personinfo>
    <personinfo id="30" depart="5783.00" type="DEFAULT_PEDTYPE" speedFactor="1.09" duration="496.00" waitingTime="59.00" timeLoss="78.22" traveltime="437.00">
        <ride waitingTime="59.00" vehicle="t_7" depart="5842.00" arrival="6279.00" arrivalPos="892.96" duration="437.00" routeLength="4334.22" timeLoss="78.22"/>
    </personinfo>
    <personinfo id="32" depart="6017.00" type="DEFAULT_PEDTYPE" speedFactor="0.90" duration="271.00" waitingTime="64.00" timeLoss="35.66" traveltime="207.00">
        <ride waitingTime="64.00" vehicle="t_4" depart="6081.00" arrival="6288.00" arrivalPos="85.99" duration="207.00" routeLength="1666.41" timeLoss="35.66"/>
    </personinfo>
    <personinfo id="31" depart="6004.00" type="DEFAULT_PEDTYPE" speedFactor="1.00" duration="469.00" waitingTime="107.00" timeLoss="54.43" traveltime="362.00">
        <ride waitingTime="107.00" vehicle="t_0" depart="6111.00" arrival="6473.00" arrivalPos="26.00" duration="362.00" routeLength="4658.69" timeLoss="54.43"/>
    </personinfo>
    <personinfo id="33" depart="6340.00" type="DEFAULT_PEDTYPE" speedFactor="0.88" duration="389.00" waitingTime="155.00" timeLoss="28.72" traveltime="234.00">
        <ride waitingTime="155.00" vehicle="t_10" depart="6495.00" arrival="6729.00" arrivalPos="53.15" duration="234.00" routeLength="2120.84" timeLoss="28.72"/>
    </personinfo>
    <personinfo id="34" depart="7653.00" type="DEFAULT_PEDTYPE" speedFactor="0.85" duration="308.00" waitingTime="124.00" timeLoss="29.81" traveltime="184.00">
        <ride waitingTime="124.00" vehicle="t_10" depart="7777.00" arrival="7961.00" arrivalPos="18.89" duration="184.00" routeLength="1907.05" timeLoss="29.81"/>
    </personinfo>
    <personinfo id="35" depart="7996.00" type="DEFAULT_PEDTYPE" speedFactor="0.85" duration="570.00" waitingTime="80.00" timeLoss="121.76" traveltime="490.00">
        <ride waitingTime="80.00" vehicle="t_3" depart="8076.00" arrival="8566.00" arrivalPos="52.47" duration="490.00" routeLength="6223.34" timeLoss="121.76"/>
    </personinfo>
    <personinfo id="36" depart="8186.00" type="DEFAULT_PEDTYPE" speedFactor="1.17" duration="385.00" waitingTime="143.00" timeLoss="20.02" traveltime="242.00">
        <ride waitingTime="143.00" vehicle="t_12" depart="8329.00" arrival="8571.00" arrivalPos="88.03" duration="242.00" routeLength="3524.47" timeLoss="20.02"/>
    </personinfo>
    <personinfo id="39" depart="8779.00" type="DEFAULT_PEDTYPE" speedFactor="1.00" duration="239.00" waitingTime="70.00" timeLoss="23.96" traveltime="169.00">
        <ride waitingTime="70.00" vehicle="t_10" depart="8849.00" arrival="9018.00" arrivalPos="14.88" duration="169.00" routeLength="1384.40" timeLoss="23.96"/>
    </personinfo>
    <personinfo id="37" depart="8618.00" type="DEFAULT_PEDTYPE" speedFactor="1.02" duration="426.00" waitingTime="93.00" timeLoss="62.31" traveltime="333.00">
        <ride waitingTime="93.00" vehicle="t_6" depart="8711.00" arrival="9044.00" arrivalPos="22.37" duration="333.00" routeLength="3724.42" timeLoss="62.31"/>
    </personinfo>
    <personinfo id="38" depart="8627.00" type="DEFAULT_PEDTYPE" speedFactor="1.10" duration="476.00" waitingTime="101.00" timeLoss="106.84" traveltime="375.00">
        <ride waitingTime="101.00" vehicle="t_11" depart="8728.00" arrival="9103.00" arrivalPos="29.51" duration="375.00" routeLength="4222.95" timeLoss="106.84"/>
    </personinfo>
    <personinfo id="42" depart="9140.00" type="DEFAULT_PEDTYPE" speedFactor="1.14" duration="167.00" waitingTime="61.00" timeLoss="6.01" traveltime="106.00">
        <ride waitingTime="61.00" vehicle="t_10" depart="9201.00" arrival="9307.00" arrivalPos="15.91" duration="106.00" routeLength="470.60" timeLoss="6.01"/>
    </personinfo>
    <personinfo id="40" depart="9055.00" type="DEFAULT_PEDTYPE" speedFactor="1.00" duration="434.00" waitingTime="87.00" timeLoss="64.70" traveltime="347.00">
        <ride waitingTime="87.00" vehicle="t_5" depart="9142.00" arrival="9489.00" arrivalPos="41.64" duration="347.00" routeLength="5462.59" timeLoss="64.70"/>
    </personinfo>
    <personinfo id="41" depart="9137.00" type="DEFAULT_PEDTYPE" speedFactor="0.90" duration="395.00" waitingTime="196.00" timeLoss="12.36" traveltime="199.00">
        <ride waitingTime="196.00" vehicle="t_14" depart="9333.00" arrival="9532.00" arrivalPos="37.52" duration="199.00" routeLength="2145.86" timeLoss="12.36"/>
    </personinfo>
    <personinfo id="43" depart="9572.00" type="DEFAULT_PEDTYPE" speedFactor="1.02" duration="308.00" waitingTime="51.00" timeLoss="28.39" traveltime="257.00">
        <ride waitingTime="51.00" vehicle="t_10" depart="9623.00" arrival="9880.00" arrivalPos="32.30" duration="257.00" routeLength="2966.27" timeLoss="28.39"/>
    </personinfo>
    <personinfo id="44" depart="9690.00" type="DEFAULT_PEDTYPE" speedFactor="0.97" duration="416.00" waitingTime="89.00" timeLoss="73.96" traveltime="327.00">
        <ride waitingTime="89.00" vehicle="t_13" depart="9779.00" arrival="10106.00" arrivalPos="26.51" duration="327.00" routeLength="3587.49" timeLoss="73.96"/>
    </personinfo>
    <personinfo id="45" depart="10210.00" type="DEFAULT_PEDTYPE" speedFactor="1.08" duration="331.00" waitingTime="120.00" timeLoss="56.21" traveltime="211.00">
        <ride waitingTime="120.00" vehicle="t_0" depart="10330.00" arrival="10541.00" arrivalPos="13.58" duration="211.00" routeLength="2011.50" timeLoss="56.21"/>
    </personinfo>
    <personinfo id="46" depart="10554.00" type="DEFAULT_PEDTYPE" speedFactor="1.12" duration="421.00" waitingTime="80.00" timeLoss="80.55" traveltime="341.00">
        <ride waitingTime="80.00" vehicle="t_6" depart="10634.00" arrival="10975.00" arrivalPos="0.47" duration="341.00" routeLength="3771.83" timeLoss="80.55"/>
    </personinfo>
    <personinfo id="47" depart="11006.00" type="DEFAULT_PEDTYPE" speedFactor="1.02" duration="325.00" waitingTime="59.00" timeLoss="65.91" traveltime="266.00">
        <ride waitingTime="59.00" vehicle="t_10" depart="11065.00" arrival="11331.00" arrivalPos="339.41" duration="266.00" routeLength="2015.92" timeLoss="65.91"/>
    </personinfo>
    <personinfo id="48" depart="11292.00" type="DEFAULT_PEDTYPE" speedFactor="0.99" duration="408.00" waitingTime="115.00" timeLoss="49.32" traveltime="293.00">
        <ride waitingTime="115.00" vehicle="t_12" depart="11407.00" arrival="11700.00" arrivalPos="273.01" duration="293.00" routeLength="3102.96" timeLoss="49.32"/>
    </personinfo>
    <personinfo id="49" depart="11924.00" type="DEFAULT_PEDTYPE" speedFactor="0.94" duration="496.00" waitingTime="63.00" timeLoss="123.23" traveltime="433.00">
        <ride waitingTime="63.00" vehicle="t_10" depart="11987.00" arrival="12420.00" arrivalPos="127.70" duration="433.00" routeLength="5421.72" timeLoss="123.23"/>
    </personinfo>
    <personinfo id="51" depart="12505.00" type="DEFAULT_PEDTYPE" speedFactor="0.91" duration="374.00" waitingTime="80.00" timeLoss="54.77" traveltime="294.00">
        <ride waitingTime="80.00" vehicle="t_13" depart="12585.00" arrival="12879.00" arrivalPos="240.81" duration="294.00" routeLength="3149.26" timeLoss="54.77"/>
    </personinfo>
    <personinfo id="52" depart="12710.00" type="DEFAULT_PEDTYPE" speedFactor="0.91" duration="308.00" waitingTime="53.00" timeLoss="24.39" traveltime="255.00">
        <ride waitingTime="53.00" vehicle="t_4" depart="12763.00" arrival="13018.00" arrivalPos="105.07" duration="255.00" routeLength="2367.24" timeLoss="24.39"/>
    </personinfo>
    <personinfo id="50" depart="12471.00" type="DEFAULT_PEDTYPE" speedFactor="0.88" duration="584.00" waitingTime="234.00" timeLoss="49.49" traveltime="350.00">
        <ride waitingTime="234.00" vehicle="t_11" depart="12705.00" arrival="13055.00" arrivalPos="38.27" duration="350.00" routeLength="4954.99" timeLoss="49.49"/>
    </personinfo>
    <personinfo id="53" depart="12755.00" type="DEFAULT_PEDTYPE" speedFactor="1.04" duration="470.00" waitingTime="154.00" timeLoss="37.74" traveltime="316.00">
        <ride waitingTime="154.00" vehicle="t_6" depart="12909.00" arrival="13225.00" arrivalPos="979.46" duration="316.00" routeLength="3050.76" timeLoss="37.74"/>
    </personinfo>
    <personinfo id="54" depart="13004.00" type="DEFAULT_PEDTYPE" speedFactor="1.02" duration="286.00" waitingTime="105.00" timeLoss="10.77" traveltime="181.00">
        <ride waitingTime="105.00" vehicle="t_0" depart="13109.00" arrival="13290.00" arrivalPos="75.73" duration="181.00" routeLength="1621.78" timeLoss="10.77"/>
    </personinfo>
    <personinfo id="55" depart="13154.00" type="DEFAULT_PEDTYPE" speedFactor="1.02" duration="454.00" waitingTime="84.00" timeLoss="113.75" traveltime="370.00">
        <ride waitingTime="84.00" vehicle="t_14" depart="13238.00" arrival="13608.00" arrivalPos="56.18" duration="370.00" routeLength="4211.25" timeLoss="113.75"/>
    </personinfo>
    <personinfo id="56" depart="13716.00" type="DEFAULT_PEDTYPE" speedFactor="0.97" duration="499.00" waitingTime="92.00" timeLoss="70.40" traveltime="407.00">
        <ride waitingTime="92.00" vehicle="t_5" depart="13808.00" arrival="14215.00" arrivalPos="86.92" duration="407.00" routeLength="5448.05" timeLoss="70.40"/>
    </personinfo>
    <personinfo id="57" depart="13812.00" type="DEFAULT_PEDTYPE" speedFactor="0.94" duration="457.00" waitingTime="190.00" timeLoss="48.34" traveltime="267.00">
        <ride waitingTime="190.00" vehicle="t_9" depart="14002.00" arrival="14269.00" arrivalPos="11.40" duration="267.00" routeLength="3058.79" timeLoss="48.34"/>
    </personinfo>
    <personinfo id="58" depart="14157.00" type="DEFAULT_PEDTYPE" speedFactor="1.06" duration="452.00" waitingTime="97.00" timeLoss="76.94" traveltime="355.00">
        <ride waitingTime="97.00" vehicle="t_12" depart="14254.00" arrival="14609.00" arrivalPos="53.15" duration="355.00" routeLength="3916.96" timeLoss="76.94"/>
    </personinfo>
    <personinfo id="60" depart="14450.00" type="DEFAULT_PEDTYPE" speedFactor="0.98" duration="185.00" waitingTime="81.00" timeLoss="4.91" traveltime="104.00">
        <ride waitingTime="81.00" vehicle="t_5" depart="14531.00" arrival="14635.00" arrivalPos="15.91" duration="104.00" routeLength="470.57" timeLoss="4.91"/>
    </personinfo>
    <personinfo id="59" depart="14283.00" type="DEFAULT_PEDTYPE" speedFactor="0.96" duration="398.00" waitingTime="199.00" timeLoss="17.37" traveltime="199.00">
        <ride waitingTime="199.00" vehicle="t_13" depart="14482.00" arrival="14681.00" arrivalPos="105.07" duration="199.00" routeLength="1749.72" timeLoss="17.37"/>
    </personinfo>
    <personinfo id="61" depart="14466.00" type="DEFAULT_PEDTYPE" speedFactor="1.03" duration="466.00" waitingTime="150.00" timeLoss="52.46" traveltime="316.00">
        <ride waitingTime="150.00" vehicle="t_2" depart="14616.00" arrival="14932.00" arrivalPos="18.37" duration="316.00" routeLength="4627.83" timeLoss="52.46"/>
    </personinfo>
    <personinfo id="63" depart="14725.00" type="DEFAULT_PEDTYPE" speedFactor="1.01" duration="292.00" waitingTime="132.00" timeLoss="14.33" traveltime="160.00">
        <ride waitingTime="132.00" vehicle="t_14" depart="14857.00" arrival="15017.00" arrivalPos="18.57" duration="160.00" routeLength="1601.09" timeLoss="14.33"/>
    </personinfo>
    <personinfo id="62" depart="14617.00" type="DEFAULT_PEDTYPE" speedFactor="0.98" duration="421.00" waitingTime="133.00" timeLoss="46.78" traveltime="288.00">
        <ride waitingTime="133.00" vehicle="t_5" depart="14750.00" arrival="15038.00" arrivalPos="240.81" duration="288.00" routeLength="2983.47" timeLoss="46.78"/>
    </personinfo>
    <personinfo id="64" depart="14788.00" type="DEFAULT_PEDTYPE" speedFactor="1.09" duration="360.00" waitingTime="136.00" timeLoss="73.82" traveltime="224.00">
        <ride waitingTime="136.00" vehicle="t_12" depart="14924.00" arrival="15148.00" arrivalPos="18.37" duration="224.00" routeLength="1816.43" timeLoss="73.82"/>
    </personinfo>
    <personinfo id="65" depart="15080.00" type="DEFAULT_PEDTYPE" speedFactor="1.03" duration="330.00" waitingTime="83.00" timeLoss="44.05" traveltime="247.00">
        <ride waitingTime="83.00" vehicle="t_0" depart="15163.00" arrival="15410.00" arrivalPos="52.47" duration="247.00" routeLength="2391.91" timeLoss="44.05"/>
    </personinfo>
    <personinfo id="67" depart="15289.00" type="DEFAULT_PEDTYPE" speedFactor="1.02" duration="242.00" waitingTime="27.00" timeLoss="57.20" traveltime="215.00">
        <ride waitingTime="27.00" vehicle="t_7" depart="15316.00" arrival="15531.00" arrivalPos="18.37" duration="215.00" routeLength="1816.48" timeLoss="57.20"/>
    </personinfo>
    <personinfo id="66" depart="15159.00" type="DEFAULT_PEDTYPE" speedFactor="1.00" duration="439.00" waitingTime="155.00" timeLoss="66.32" traveltime="284.00">
        <ride waitingTime="155.00" vehicle="t_13" depart="15314.00" arrival="15598.00" arrivalPos="70.28" duration="284.00" routeLength="3182.62" timeLoss="66.32"/>
    </personinfo>
    <personinfo id="68" depart="15466.00" type="DEFAULT_PEDTYPE" speedFactor="0.97" duration="381.00" waitingTime="160.00" timeLoss="24.42" traveltime="221.00">
        <ride waitingTime="160.00" vehicle="t_4" depart="15626.00" arrival="15847.00" arrivalPos="33.53" duration="221.00" routeLength="1926.51" timeLoss="24.42"/>
    </personinfo>
    <personinfo id="70" depart="16135.00" type="DEFAULT_PEDTYPE" speedFactor="0.98" duration="228.00" waitingTime="43.00" timeLoss="32.81" traveltime="185.00">
        <ride waitingTime="43.00" vehicle="t_12" depart="16178.00" arrival="16363.00" arrivalPos="63.74" duration="185.00" routeLength="1607.52" timeLoss="32.81"/>
    </personinfo>
    <personinfo id="71" depart="16314.00" type="DEFAULT_PEDTYPE" speedFactor="1.00" duration="312.00" waitingTime="140.00" timeLoss="17.28" traveltime="172.00">
        <ride waitingTime="140.00" vehicle="t_11" depart="16454.00" arrival="16626.00" arrivalPos="48.99" duration="172.00" routeLength="1362.58" timeLoss="17.28"/>
    </personinfo>
    <personinfo id="69" depart="16092.00" type="DEFAULT_PEDTYPE" speedFactor="1.15" duration="560.00" waitingTime="151.00" timeLoss="88.70" traveltime="409.00">
        <ride waitingTime="151.00" vehicle="t_3" depart="16243.00" arrival="16652.00" arrivalPos="88.03" duration="409.00" routeLength="5888.68" timeLoss="88.70"/>
    </personinfo>
    <personinfo id="73" depart="16470.00" type="DEFAULT_PEDTYPE" speedFactor="1.01" duration="456.00" waitingTime="195.00" timeLoss="58.39" traveltime="261.00">
        <ride waitingTime="195.00" vehicle="t_12" depart="16665.00" arrival="16926.00" arrivalPos="85.47" duration="261.00" routeLength="2949.60" timeLoss="58.39"/>
    </personinfo>
    <personinfo id="74" depart="16602.00" type="DEFAULT_PEDTYPE" speedFactor="1.02" duration="348.00" waitingTime="51.00" timeLoss="35.57" traveltime="297.00">
        <ride waitingTime="51.00" vehicle="t_13" depart="16653.00" arrival="16950.00" arrivalPos="97.31" duration="297.00" routeLength="4198.38" timeLoss="35.57"/>
    </personinfo>
    <personinfo id="72" depart="16458.00" type="DEFAULT_PEDTYPE" speedFactor="1.04" duration="573.00" waitingTime="165.00" timeLoss="51.72" traveltime="408.00">
        <ride waitingTime="165.00" vehicle="t_14" depart="16623.00" arrival="17031.00" arrivalPos="117.72" duration="408.00" routeLength="6034.25" timeLoss="51.72"/>
    </personinfo>
    <personinfo id="75" depart="17109.00" type="DEFAULT_PEDTYPE" speedFactor="1.02" duration="422.00" waitingTime="88.00" timeLoss="76.19" traveltime="334.00">
        <ride waitingTime="88.00" vehicle="t_2" depart="17197.00" arrival="17531.00" arrivalPos="66.56" duration="334.00" routeLength="4340.80" timeLoss="76.19"/>
    </personinfo>
    <personinfo id="76" depart="17434.00" type="DEFAULT_PEDTYPE" speedFactor="0.89" duration="351.00" waitingTime="80.00" timeLoss="52.76" traveltime="271.00">
        <ride waitingTime="80.00" vehicle="t_14" depart="17514.00" arrival="17785.00" arrivalPos="3.04" duration="271.00" routeLength="2791.36" timeLoss="52.76"/>
    </personinfo>
    <personinfo id="77" depart="17484.00" type="DEFAULT_PEDTYPE" speedFactor="0.83" duration="504.00" waitingTime="180.00" timeLoss="61.00" traveltime="324.00">
        <ride waitingTime="180.00" vehicle="t_11" depart="17664.00" arrival="17988.00" arrivalPos="81.57" duration="324.00" routeLength="4429.29" timeLoss="61.00"/>
    </personinfo>
    <personinfo id="78" depart="17751.00" type="DEFAULT_PEDTYPE" speedFactor="0.92" duration="468.00" waitingTime="165.00" timeLoss="49.06" traveltime="303.00">
        <ride waitingTime="165.00" vehicle="t_4" depart="17916.00" arrival="18219.00" arrivalPos="13.58" duration="303.00" routeLength="3806.90" timeLoss="49.06"/>
    </personinfo>
    <personinfo id="79" depart="18306.00" type="DEFAULT_PEDTYPE" speedFactor="1.09" duration="442.00" waitingTime="95.00" timeLoss="48.04" traveltime="347.00">
        <ride waitingTime="95.00" vehicle="t_2" depart="18401.00" arrival="18748.00" arrivalPos="88.03" duration="347.00" routeLength="5557.72" timeLoss="48.04"/>
    </personinfo>
    <personinfo id="81" depart="18475.00" type="DEFAULT_PEDTYPE" speedFactor="1.01" duration="283.00" waitingTime="46.00" timeLoss="27.38" traveltime="237.00">
        <ride waitingTime="46.00" vehicle="t_3" depart="18521.00" arrival="18758.00" arrivalPos="46.21" duration="237.00" routeLength="2633.63" timeLoss="27.38"/>
    </personinfo>
    <personinfo id="80" depart="18389.00" type="DEFAULT_PEDTYPE" speedFactor="1.06" duration="626.00" waitingTime="258.00" timeLoss="55.80" traveltime="368.00">
        <ride waitingTime="258.00" vehicle="t_5" depart="18647.00" arrival="19015.00" arrivalPos="66.56" duration="368.00" routeLength="5593.43" timeLoss="55.80"/>
    </personinfo>
    <personinfo id="83" depart="18659.00" type="DEFAULT_PEDTYPE" speedFactor="1.12" duration="386.00" waitingTime="145.00" timeLoss="26.96" traveltime="241.00">
        <ride waitingTime="145.00" vehicle="t_7" depart="18804.00" arrival="19045.00" arrivalPos="117.72" duration="241.00" routeLength="2202.32" timeLoss="26.96"/>
    </personinfo>