<?xml version="1.0" encoding="UTF-8"?>

<!-- generated on 2026-04-20T17:52:26.362811+08:00 by Eclipse SUMO sumo 1.26.0
<sumoConfiguration xmlns:xsi="http://www.w3.org/2001/XMLSchema-instance" xsi:noNamespaceSchemaLocation="http://sumo.dlr.de/xsd/sumoConfiguration.xsd">

    <input>
        <net-file value="D:\FYP\DeepPoolPer_Comparison2\SunwaySmallMap\osm.net.xml"/>
        <route-files value="D:\FYP\DeepPoolPer_Comparison2\SunwaySmallMap\self_request_300.rou.xml,D:\FYP\DeepPoolPer_Comparison2\SunwaySmallMap\taxi_more_300.rou.xml"/>
    </input>

    <output>
        <tripinfo-output value="D:\FYP\DeepPoolPer_Comparison2\SunwaySmallMap\tripinfos.xml"/>
        <statistic-output value="D:\FYP\DeepPoolPer_Comparison2\SunwaySmallMap\stats.xml"/>
    </output>

    <time>
        <step-length value="1.0"/>
    </time>

    <processing>
        <ignore-route-errors value="true"/>
        <tls.actuated.jam-threshold value="30"/>
    </processing>

    <routing>
        <device.rerouting.adaptation-steps value="18"/>
        <device.rerouting.adaptation-interval value="10"/>
    </routing>

    <report>
        <verbose value="true"/>
        <duration-log.statistics value="true"/>
        <no-step-log value="true"/>
    </report>

    <taxi_device>
        <device.taxi.dispatch-algorithm value="traci"/>
        <device.taxi.idle-algorithm value="stop"/>
    </taxi_device>

    <traci_server>
        <remote-port value="52288"/>
    </traci_server>

    <gui_only>
        <gui-settings-file value="D:\FYP\DeepPoolPer_Comparison2\SunwaySmallMap\osm.view.xml"/>
    </gui_only>

</sumoConfiguration>
-->

<tripinfos xmlns:xsi="http://www.w3.org/2001/XMLSchema-instance" xsi:noNamespaceSchemaLocation="http://sumo.dlr.de/xsd/tripinfo_file.xsd">
    <personinfo id="0" depart="140.00" type="DEFAULT_PEDTYPE" speedFactor="1.06" duration="574.00" waitingTime="115.00" timeLoss="89.10" traveltime="459.00">
        <ride waitingTime="115.00" vehicle="t_4" depart="255.00" arrival="714.00" arrivalPos="7.94" duration="459.00" routeLength="5219.86" timeLoss="89.10"/>
    </personinfo>
    <personinfo id="2" depart="573.00" type="DEFAULT_PEDTYPE" speedFactor="1.01" duration="474.00" waitingTime="110.00" timeLoss="73.12" traveltime="364.00">
        <ride waitingTime="110.00" vehicle="t_2" depart="683.00" arrival="1047.00" arrivalPos="20.31" duration="364.00" routeLength="5366.44" timeLoss="73.12"/>
    </personinfo>
    <personinfo id="1" depart="540.00" type="DEFAULT_PEDTYPE" speedFactor="0.88" duration="520.00" waitingTime="53.00" timeLoss="66.13" traveltime="467.00">
        <ride waitingTime="53.00" vehicle="t_0" depart="593.00" arrival="1060.00" arrivalPos="110.18" duration="467.00" routeLength="5946.85" timeLoss="66.13"/>
    </personinfo>
    <personinfo id="3" depart="644.00" type="DEFAULT_PEDTYPE" speedFactor="1.09" duration="511.00" waitingTime="151.00" timeLoss="48.16" traveltime="360.00">
        <ride waitingTime="151.00" vehicle="t_12" depart="795.00" arrival="1155.00" arrivalPos="45.67" duration="360.00" routeLength="5465.04" timeLoss="48.16"/>
    </personinfo>
    <personinfo id="4" depart="693.00" type="DEFAULT_PEDTYPE" speedFactor="1.03" duration="538.00" waitingTime="69.00" timeLoss="130.48" traveltime="469.00">
        <ride waitingTime="69.00" vehicle="t_3" depart="762.00" arrival="1231.00" arrivalPos="28.18" duration="469.00" routeLength="5568.44" timeLoss="130.48"/>
    </personinfo>
    <personinfo id="5" depart="990.00" type="DEFAULT_PEDTYPE" speedFactor="1.00" duration="553.00" waitingTime="143.00" timeLoss="80.94" traveltime="410.00">
        <ride waitingTime="143.00" vehicle="t_13" depart="1133.00" arrival="1543.00" arrivalPos="59.39" duration="410.00" routeLength="5046.96" timeLoss="80.94"/>
    </personinfo>
    <personinfo id="6" depart="1018.00" type="DEFAULT_PEDTYPE" speedFactor="0.93" duration="569.00" waitingTime="198.00" timeLoss="46.73" traveltime="371.00">
        <ride waitingTime="198.00" vehicle="t_12" depart="1216.00" arrival="1587.00" arrivalPos="34.06" duration="371.00" routeLength="5173.03" timeLoss="46.73"/>
    </personinfo>
    <personinfo id="7" depart="1372.00" type="DEFAULT_PEDTYPE" speedFactor="0.96" duration="524.00" waitingTime="135.00" timeLoss="65.72" traveltime="389.00">
        <ride waitingTime="135.00" vehicle="t_3" depart="1507.00" arrival="1896.00" arrivalPos="73.66" duration="389.00" routeLength="5789.27" timeLoss="65.72"/>
    </personinfo>
    <personinfo id="8" depart="1724.00" type="DEFAULT_PEDTYPE" speedFactor="0.99" duration="526.00" waitingTime="40.00" timeLoss="103.59" traveltime="486.00">
        <ride waitingTime="40.00" vehicle="t_2" depart="1764.00" arrival="2250.00" arrivalPos="77.94" duration="486.00" routeLength="5166.65" timeLoss="103.59"/>
    </personinfo>
    <personinfo id="9" depart="1878.00" type="DEFAULT_PEDTYPE" speedFactor="1.07" duration="616.00" waitingTime="244.00" timeLoss="48.44" traveltime="372.00">
        <ride waitingTime="244.00" vehicle="t_12" depart="2122.00" arrival="2494.00" arrivalPos="22.44" duration="372.00" routeLength="6206.60" timeLoss="48.44"/>
    </personinfo>
    <personinfo id="10" depart="1964.00" type="DEFAULT_PEDTYPE" speedFactor="1.17" duration="661.00" waitingTime="233.00" timeLoss="47.67" traveltime="428.00">
        <ride waitingTime="233.00" vehicle="t_4" depart="2197.00" arrival="2625.00" arrivalPos="189.02" duration="428.00" routeLength="5326.65" timeLoss="47.67"/>
    </personinfo>
    <personinfo id="11" depart="2003.00" type="DEFAULT_PEDTYPE" speedFactor="1.04" duration="633.00" waitingTime="216.00" timeLoss="74.11" traveltime="417.00">
        <ride waitingTime="216.00" vehicle="t_7" depart="2219.00" arrival="2636.00" arrivalPos="106.24" duration="417.00" routeLength="5098.90" timeLoss="74.11"/>
    </personinfo>
    <personinfo id="13" depart="2182.00" type="DEFAULT_PEDTYPE" speedFactor="1.11" duration="476.00" waitingTime="110.00" timeLoss="55.95" traveltime="366.00">
        <ride waitingTime="110.00" vehicle="t_2" depart="2292.00" arrival="2658.00" arrivalPos="93.30" duration="366.00" routeLength="4960.03" timeLoss="55.95"/>
    </personinfo>
    <personinfo id="12" depart="2089.00" type="DEFAULT_PEDTYPE" speedFactor="1.02" duration="584.00" waitingTime="157.00" timeLoss="89.54" traveltime="427.00">
        <ride waitingTime="157.00" vehicle="t_1" depart="2246.00" arrival="2673.00" arrivalPos="57.81" duration="427.00" routeLength="5722.31" timeLoss="89.54"/>
    </personinfo>
    <personinfo id="14" depart="2368.00" type="DEFAULT_PEDTYPE" speedFactor="0.86" duration="772.00" waitingTime="348.00" timeLoss="53.35" traveltime="424.00">
        <ride waitingTime="348.00" vehicle="t_13" depart="2716.00" arrival="3140.00" arrivalPos="239.13" duration="424.00" routeLength="6185.30" timeLoss="53.35"/>
    </personinfo>
    <personinfo id="15" depart="3358.00" type="DEFAULT_PEDTYPE" speedFactor="1.14" duration="502.00" waitingTime="140.00" timeLoss="51.22" traveltime="362.00">
        <ride waitingTime="140.00" vehicle="t_1" depart="3498.00" arrival="3860.00" arrivalPos="22.26" duration="362.00" routeLength="5449.50" timeLoss="51.22"/>
    </personinfo>
    <personinfo id="16" depart="3529.00" type="DEFAULT_PEDTYPE" speedFactor="1.02" duration="593.00" waitingTime="221.00" timeLoss="55.61" traveltime="372.00">
        <ride waitingTime="221.00" vehicle="t_13" depart="3750.00" arrival="4122.00" arrivalPos="31.27" duration="372.00" routeLength="5057.99" timeLoss="55.61"/>
    </personinfo>
    <personinfo id="17" depart="3697.00" type="DEFAULT_PEDTYPE" speedFactor="1.03" duration="676.00" waitingTime="252.00" timeLoss="104.28" traveltime="424.00">
        <ride waitingTime="252.00" vehicle="t_7" depart="3949.00" arrival="4373.00" arrivalPos="246.07" duration="424.00" routeLength="5041.43" timeLoss="104.28"/>
    </personinfo>
    <personinfo id="19" depart="4525.00" type="DEFAULT_PEDTYPE" speedFactor="1.11" duration="485.00" waitingTime="59.00" timeLoss="120.22" traveltime="426.00">
        <ride waitingTime="59.00" vehicle="t_3" depart="4584.00" arrival="5010.00" arrivalPos="28.72" duration="426.00" routeLength="4768.84" timeLoss="120.22"/>
    </personinfo>
    <personinfo id="18" depart="4295.00" type="DEFAULT_PEDTYPE" speedFactor="0.85" duration="743.00" waitingTime="285.00" timeLoss="87.55" traveltime="458.00">
        <ride waitingTime="285.00" vehicle="t_9" depart="4580.00" arrival="5038.00" arrivalPos="55.26" duration="458.00" routeLength="6934.48" timeLoss="87.55"/>
    </personinfo>
    <personinfo id="20" depart="4557.00" type="DEFAULT_PEDTYPE" speedFactor="0.77" duration="500.00" waitingTime="28.00" timeLoss="122.11" traveltime="472.00">
        <ride waitingTime="28.00" vehicle="t_14" depart="4585.00" arrival="5057.00" arrivalPos="42.17" duration="472.00" routeLength="6005.94" timeLoss="122.11"/>
    </personinfo>
    <personinfo id="23" depart="4762.00" type="DEFAULT_PEDTYPE" speedFactor="0.98" duration="490.00" waitingTime="38.00" timeLoss="103.65" traveltime="452.00">
        <ride waitingTime="38.00" vehicle="t_1" depart="4800.00" arrival="5252.00" arrivalPos="63.63" duration="452.00" routeLength="6169.51" timeLoss="103.65"/>
    </personinfo>
    <personinfo id="21" depart="4723.00" type="DEFAULT_PEDTYPE" speedFactor="1.01" duration="535.00" waitingTime="193.00" timeLoss="81.88" traveltime="342.00">
        <ride waitingTime="193.00" vehicle="t_13" depart="4916.00" arrival="5258.00" arrivalPos="31.71" duration="342.00" routeLength="4690.37" timeLoss="81.88"/>
    </personinfo>
    <personinfo id="25" depart="4923.00" type="DEFAULT_PEDTYPE" speedFactor="1.01" duration="464.00" waitingTime="143.00" timeLoss="49.50" traveltime="321.00">
        <ride waitingTime="143.00" vehicle="t_5" depart="5066.00" arrival="5387.00" arrivalPos="41.48" duration="321.00" routeLength="4912.01" timeLoss="49.50"/>
    </personinfo>
    <personinfo id="27" depart="5028.00" type="DEFAULT_PEDTYPE" speedFactor="0.95" duration="447.00" waitingTime="43.00" timeLoss="115.28" traveltime="404.00">
        <ride waitingTime="43.00" vehicle="t_11" depart="5071.00" arrival="5475.00" arrivalPos="3.61" duration="404.00" routeLength="5835.59" timeLoss="115.28"/>
    </personinfo>
    <personinfo id="22" depart="4737.00" type="DEFAULT_PEDTYPE" speedFactor="0.86" duration="766.00" waitingTime="358.00" timeLoss="74.68" traveltime="408.00">
        <ride waitingTime="358.00" vehicle="t_6" depart="5095.00" arrival="5503.00" arrivalPos="86.64" duration="408.00" routeLength="4881.24" timeLoss="74.68"/>
    </personinfo>
    <personinfo id="26" depart="4947.00" type="DEFAULT_PEDTYPE" speedFactor="0.97" duration="570.00" waitingTime="136.00" timeLoss="75.83" traveltime="434.00">
        <ride waitingTime="136.00" vehicle="t_14" depart="5083.00" arrival="5517.00" arrivalPos="193.08" duration="434.00" routeLength="5505.04" timeLoss="75.83"/>
    </personinfo>
    <personinfo id="24" depart="4821.00" type="DEFAULT_PEDTYPE" speedFactor="0.86" duration="730.00" waitingTime="279.00" timeLoss="75.13" traveltime="451.00">
        <ride waitingTime="279.00" vehicle="t_4" depart="5100.00" arrival="5551.00" arrivalPos="74.44" duration="451.00" routeLength="6003.35" timeLoss="75.13"/>
    </personinfo>
    <personinfo id="28" depart="5327.00" type="DEFAULT_PEDTYPE" speedFactor="0.89" duration="526.00" waitingTime="83.00" timeLoss="106.37" traveltime="443.00">
        <ride waitingTime="83.00" vehicle="t_8" depart="5410.00" arrival="5853.00" arrivalPos="44.28" duration="443.00" routeLength="5274.45" timeLoss="106.37"/>
    </personinfo>
    <personinfo id="29" depart="5675.00" type="DEFAULT_PEDTYPE" speedFactor="0.83" duration="422.00" waitingTime="53.00" timeLoss="39.00" traveltime="369.00">
        <ride waitingTime="53.00" vehicle="t_5" depart="5728.00" arrival="6097.00" arrivalPos="26.87" duration="369.00" routeLength="5137.92" timeLoss="39.00"/>
    </personinfo>
    <personinfo id="31" depart="5767.00" type="DEFAULT_PEDTYPE" speedFactor="0.87" duration="464.00" waitingTime="54.00" timeLoss="88.04" traveltime="410.00">
        <ride waitingTime="54.00" vehicle="t_0" depart="5821.00" arrival="6231.00" arrivalPos="82.96" duration="410.00" routeLength="5294.54" timeLoss="88.04"/>
    </personinfo>
    <personinfo id="32" depart="5783.00" type="DEFAULT_PEDTYPE" speedFactor="1.07" duration="449.00" waitingTime="40.00" timeLoss="79.49" traveltime="409.00">
        <ride waitingTime="40.00" vehicle="t_1" depart="5823.00" arrival="6232.00" arrivalPos="203.88" duration="409.00" routeLength="5270.45" timeLoss="79.49"/>
    </personinfo>
    <personinfo id="30" depart="5721.00" type="DEFAULT_PEDTYPE" speedFactor="1.15" duration="595.00" waitingTime="125.00" timeLoss="85.00" traveltime="470.00">
        <ride waitingTime="125.00" vehicle="t_6" depart="5846.00" arrival="6316.00" arrivalPos="82.04" duration="470.00" routeLength="6545.58" timeLoss="85.00"/>
    </personinfo>
    <personinfo id="33" depart="5941.00" type="DEFAULT_PEDTYPE" speedFactor="1.20" duration="381.00" waitingTime="25.00" timeLoss="91.54" traveltime="356.00">
        <ride waitingTime="25.00" vehicle="t_9" depart="5966.00" arrival="6322.00" arrivalPos="42.41" duration="356.00" routeLength="4398.42" timeLoss="91.54"/>
    </personinfo>
    <personinfo id="34" depart="6004.00" type="DEFAULT_PEDTYPE" speedFactor="0.95" duration="445.00" waitingTime="88.00" timeLoss="44.64" traveltime="357.00">
        <ride waitingTime="88.00" vehicle="t_11" depart="6092.00" arrival="6449.00" arrivalPos="54.47" duration="357.00" routeLength="4901.18" timeLoss="44.64"/>
    </personinfo>
    <personinfo id="35" depart="6251.00" type="DEFAULT_PEDTYPE" speedFactor="0.96" duration="512.00" waitingTime="75.00" timeLoss="118.66" traveltime="437.00">
        <ride waitingTime="75.00" vehicle="t_1" depart="6326.00" arrival="6763.00" arrivalPos="56.46" duration="437.00" routeLength="5058.34" timeLoss="118.66"/>
    </personinfo>
    <personinfo id="36" depart="6797.00" type="DEFAULT_PEDTYPE" speedFactor="0.85" duration="465.00" waitingTime="49.00" timeLoss="76.16" traveltime="416.00">
        <ride waitingTime="49.00" vehicle="t_13" depart="6846.00" arrival="7262.00" arrivalPos="184.40" duration="416.00" routeLength="5479.21" timeLoss="76.16"/>
    </personinfo>
    <personinfo id="37" depart="6814.00" type="DEFAULT_PEDTYPE" speedFactor="1.01" duration="468.00" waitingTime="32.00" timeLoss="83.92" traveltime="436.00">
        <ride waitingTime="32.00" vehicle="t_8" depart="6846.00" arrival="7282.00" arrivalPos="47.96" duration="436.00" routeLength="5650.39" timeLoss="83.92"/>
    </personinfo>
    <personinfo id="38" depart="7270.00" type="DEFAULT_PEDTYPE" speedFactor="1.25" duration="487.00" waitingTime="80.00" timeLoss="49.73" traveltime="407.00">
        <ride waitingTime="80.00" vehicle="t_11" depart="7350.00" arrival="7757.00" arrivalPos="690.16" duration="407.00" routeLength="4609.68" timeLoss="49.73"/>
    </personinfo>
    <personinfo id="39" depart="7349.00" type="DEFAULT_PEDTYPE" speedFactor="1.05" duration="493.00" waitingTime="52.00" timeLoss="107.00" traveltime="441.00">
        <ride waitingTime="52.00" vehicle="t_6" depart="7401.00" arrival="7842.00" arrivalPos="24.12" duration="441.00" routeLength="5370.36" timeLoss="107.00"/>
    </personinfo>
    <personinfo id="40" depart="7880.00" type="DEFAULT_PEDTYPE" speedFactor="0.97" duration="457.00" waitingTime="38.00" timeLoss="89.74" traveltime="419.00">
        <ride waitingTime="38.00" vehicle="t_6" depart="7918.00" arrival="8337.00" arrivalPos="114.31" duration="419.00" routeLength="5316.83" timeLoss="89.74"/>
    </personinfo>
    <personinfo id="41" depart="7996.00" type="DEFAULT_PEDTYPE" speedFactor="1.11" duration="516.00" waitingTime="108.00" timeLoss="88.78" traveltime="408.00">
        <ride waitingTime="108.00" vehicle="t_0" depart="8104.00" arrival="8512.00" arrivalPos="100.26" duration="408.00" routeLength="5579.10" timeLoss="88.78"/>
    </personinfo>
    <personinfo id="43" depart="8196.00" type="DEFAULT_PEDTYPE" speedFactor="1.09" duration="425.00" waitingTime="31.00" timeLoss="70.35" traveltime="394.00">
        <ride waitingTime="31.00" vehicle="t_8" depart="8227.00" arrival="8621.00" arrivalPos="77.59" duration="394.00" routeLength="5245.59" timeLoss="70.35"/>
    </personinfo>
    <personinfo id="42" depart="8176.00" type="DEFAULT_PEDTYPE" speedFactor="1.12" duration="633.00" waitingTime="192.00" timeLoss="100.13" traveltime="441.00">
        <ride waitingTime="192.00" vehicle="t_6" depart="8368.00" arrival="8809.00" arrivalPos="199.40" duration="441.00" routeLength="5249.77" timeLoss="100.13"/>
    </personinfo>
    <personinfo id="44" depart="8243.00" type="DEFAULT_PEDTYPE" speedFactor="0.92" duration="616.00" waitingTime="214.00" timeLoss="69.36" traveltime="402.00">
        <ride waitingTime="214.00" vehicle="t_1" depart="8457.00" arrival="8859.00" arrivalPos="23.00" duration="402.00" routeLength="5815.57" timeLoss="69.36"/>
    </personinfo>
    <personinfo id="45" depart="8546.00" type="DEFAULT_PEDTYPE" speedFactor="0.95" duration="401.00" waitingTime="21.00" timeLoss="94.39" traveltime="380.00">
        <ride waitingTime="21.00" vehicle="t_12" depart="8567.00" arrival="8947.00" arrivalPos="28.72" duration="380.00" routeLength="4679.30" timeLoss="94.39"/>
    </personinfo>
    <personinfo id="46" depart="8627.00" type="DEFAULT_PEDTYPE" speedFactor="0.97" duration="407.00" waitingTime="58.00" timeLoss="83.94" traveltime="349.00">
        <ride waitingTime="58.00" vehicle="t_11" depart="8685.00" arrival="9034.00" arrivalPos="72.80" duration="349.00" routeLength="4735.85" timeLoss="83.94"/>
    </personinfo>
    <personinfo id="47" depart="9114.00" type="DEFAULT_PEDTYPE" speedFactor="0.97" duration="526.00" waitingTime="111.00" timeLoss="85.64" traveltime="415.00">
        <ride waitingTime="111.00" vehicle="t_11" depart="9225.00" arrival="9640.00" arrivalPos="122.59" duration="415.00" routeLength="5348.82" timeLoss="85.64"/>
    </personinfo>
    <personinfo id="48" depart="9119.00" type="DEFAULT_PEDTYPE" speedFactor="0.91" duration="539.00" waitingTime="144.00" timeLoss="66.35" traveltime="395.00">
        <ride waitingTime="144.00" vehicle="t_9" depart="9263.00" arrival="9658.00" arrivalPos="43.01" duration="395.00" routeLength="5822.21" timeLoss="66.35"/>
    </personinfo>
    <personinfo id="49" depart="9911.00" type="DEFAULT_PEDTYPE" speedFactor="0.85" duration="584.00" waitingTime="210.00" timeLoss="69.36" traveltime="374.00">
        <ride waitingTime="210.00" vehicle="t_3" depart="10121.00" arrival="10495.00" arrivalPos="23.55" duration="374.00" routeLength="5473.38" timeLoss="69.36"/>
    </personinfo>
    <personinfo id="50" depart="10916.00" type="DEFAULT_PEDTYPE" speedFactor="1.10" duration="585.00" waitingTime="174.00" timeLoss="86.44" traveltime="411.00">
        <ride waitingTime="174.00" vehicle="t_12" depart="11090.00" arrival="11501.00" arrivalPos="260.29" duration="411.00" routeLength="6217.67" timeLoss="86.44"/>
    </personinfo>
    <personinfo id="51" depart="11006.00" type="DEFAULT_PEDTYPE" speedFactor="1.13" duration="526.00" waitingTime="44.00" timeLoss="128.50" traveltime="482.00">
        <ride waitingTime="44.00" vehicle="t_1" depart="11050.00" arrival="11532.00" arrivalPos="48.64" duration="482.00" routeLength="6207.85" timeLoss="128.50"/>
    </personinfo>
    <personinfo id="52" depart="11429.00" type="DEFAULT_PEDTYPE" speedFactor="1.04" duration="485.00" waitingTime="153.00" timeLoss="42.25" traveltime="332.00">
        <ride waitingTime="153.00" vehicle="t_1" depart="11582.00" arrival="11914.00" arrivalPos="18.86" duration="332.00" routeLength="5184.97" timeLoss="42.25"/>
    </personinfo>
    <personinfo id="53" depart="11583.00" type="DEFAULT_PEDTYPE" speedFactor="1.03" duration="705.00" waitingTime="241.00" timeLoss="81.74" traveltime="464.00">
        <ride waitingTime="241.00" vehicle="t_8" depart="11824.00" arrival="12288.00" arrivalPos="205.64" duration="464.00" routeLength="6335.76" timeLoss="81.74"/>
    </personinfo>
    <personinfo id="57" depart="12126.00" type="DEFAULT_PEDTYPE" speedFactor="0.82" duration="529.00" waitingTime="142.00" timeLoss="62.48" traveltime="387.00">
        <ride waitingTime="142.00" vehicle="t_5" depart="12268.00" arrival="12655.00" arrivalPos="90.43" duration="387.00" routeLength="5810.67" timeLoss="62.48"/>
    </personinfo>
    <personinfo id="55" depart="11924.00" type="DEFAULT_PEDTYPE" speedFactor="1.06" duration="766.00" waitingTime="328.00" timeLoss="47.57" traveltime="438.00">
        <ride waitingTime="328.00" vehicle="t_13" depart="12252.00" arrival="12690.00" arrivalPos="64.07" duration="438.00" routeLength="5461.39" timeLoss="47.57"/>
    </personinfo>
    <personinfo id="54" depart="11771.00" type="DEFAULT_PEDTYPE" speedFactor="0.85" duration="986.00" waitingTime="286.00" timeLoss="132.56" traveltime="700.00">
        <ride waitingTime="286.00" vehicle="t_5" depart="12057.00" arrival="12757.00" arrivalPos="28.70" duration="700.00" routeLength="9341.46" timeLoss="132.56"/>
    </personinfo>
    <personinfo id="56" depart="12030.00" type="DEFAULT_PEDTYPE" speedFactor="1.02" duration="737.00" waitingTime="335.00" timeLoss="72.60" traveltime="402.00">
        <ride waitingTime="335.00" vehicle="t_11" depart="12365.00" arrival="12767.00" arrivalPos="20.12" duration="402.00" routeLength="5745.04" timeLoss="72.60"/>
    </personinfo>
    <personinfo id="58" depart="12471.00" type="DEFAULT_PEDTYPE" speedFactor="0.82" duration="644.00" waitingTime="300.00" timeLoss="55.08" traveltime="344.00">
        <ride waitingTime="300.00" vehicle="t_12" depart="12771.00" arrival="13115.00" arrivalPos="87.89" duration="344.00" routeLength="5327.41" timeLoss="55.08"/>
    </personinfo>
    <personinfo id="59" depart="12627.00" type="DEFAULT_PEDTYPE" speedFactor="1.14" duration="771.00" waitingTime="366.00" timeLoss="59.55" traveltime="405.00">
        <ride waitingTime="366.00" vehicle="t_13" depart="12993.00" arrival="13398.00" arrivalPos="47.02" duration="405.00" routeLength="5880.14" timeLoss="59.55"/>
    </personinfo>
    <personinfo id="60" depart="12728.00" type="DEFAULT_PEDTYPE" speedFactor="0.79" duration="814.00" waitingTime="354.00" timeLoss="116.20" traveltime="460.00">
        <ride waitingTime="354.00" vehicle="t_2" depart="13082.00" arrival="13542.00" arrivalPos="194.06" duration="460.00" routeLength="5621.06" timeLoss="116.20"/>
    </personinfo>
    <personinfo id="61" depart="13040.00" type="DEFAULT_PEDTYPE" speedFactor="0.98" duration="693.00" waitingTime="262.00" timeLoss="92.95" traveltime="431.00">
        <ride waitingTime="262.00" vehicle="t_12" depart="13302.00" arrival="13733.00" arrivalPos="21.22" duration="431.00" routeLength="6362.49" timeLoss="92.95"/>
    </personinfo>
    <personinfo id="63" depart="13360.00" type="DEFAULT_PEDTYPE" speedFactor="1.08" duration="445.00" waitingTime="24.00" timeLoss="101.81" traveltime="421.00">
        <ride waitingTime="24.00" vehicle="t_1" depart="13384.00" arrival="13805.00" arrivalPos="82.04" duration="421.00" routeLength="5353.72" timeLoss="101.81"/>
    </personinfo>
    <personinfo id="62" depart="13157.00" type="DEFAULT_PEDTYPE" speedFactor="1.02" duration="733.00" waitingTime="287.00" timeLoss="64.69" traveltime="446.00">
        <ride waitingTime="287.00" vehicle="t_3" depart="13444.00" arrival="13890.00" arrivalPos="24.01" duration="446.00" routeLength="5631.27" timeLoss="64.69"/>
    </personinfo>
    <personinfo id="64" depart="13553.00" type="DEFAULT_PEDTYPE" speedFactor="1.05" duration="507.00" waitingTime="24.00" timeLoss="108.72" traveltime="483.00">
        <ride waitingTime="24.00" vehicle="t_4" depart="13577.00" arrival="14060.00" arrivalPos="31.59" duration="483.00" routeLength="5204.88" timeLoss="108.72"/>
    </personinfo>
    <personinfo id="66" depart="13812.00" type="DEFAULT_PEDTYPE" speedFactor="0.94" duration="444.00" waitingTime="19.00" timeLoss="123.92" traveltime="425.00">
        <ride waitingTime="19.00" vehicle="t_2" depart="13831.00" arrival="14256.00" arrivalPos="0.20" duration="425.00" routeLength="5164.23" timeLoss="123.92"/>
    </personinfo>
    <personinfo id="65" depart="13731.00" type="DEFAULT_PEDTYPE" speedFactor="0.95" duration="563.00" waitingTime="142.00" timeLoss="77.94" traveltime="421.00">
        <ride waitingTime="142.00" vehicle="t_1" depart="13873.00" arrival="14294.00" arrivalPos="74.44" duration="421.00" routeLength="5921.81" timeLoss="77.94"/>
    </personinfo>
    <personinfo id="67" depart="13824.00" type="DEFAULT_PEDTYPE" speedFactor="1.01" duration="570.00" waitingTime="88.00" timeLoss="127.19" traveltime="482.00">
        <ride waitingTime="88.00" vehicle="t_3" depart="13912.00" arrival="14394.00" arrivalPos="45.44" duration="482.00" routeLength="6325.04" timeLoss="127.19"/>
    </personinfo>
    <personinfo id="70" depart="14157.00" type="DEFAULT_PEDTYPE" speedFactor="0.92" duration="421.00" waitingTime="25.00" timeLoss="67.89" traveltime="396.00">
        <ride waitingTime="25.00" vehicle="t_11" depart="14182.00" arrival="14578.00" arrivalPos="114.31" duration="396.00" routeLength="5174.94" timeLoss="67.89"/>
    </personinfo>
    <personinfo id="68" depart="13998.00" type="DEFAULT_PEDTYPE" speedFactor="0.95" duration="648.00" waitingTime="227.00" timeLoss="71.73" traveltime="421.00">
        <ride waitingTime="227.00" vehicle="t_4" depart="14225.00" arrival="14646.00" arrivalPos="21.89" duration="421.00" routeLength="5677.45" timeLoss="71.73"/>
    </personinfo>
    <personinfo id="69" depart="14038.00" type="DEFAULT_PEDTYPE" speedFactor="1.09" duration="774.00" waitingTime="389.00" timeLoss="44.73" traveltime="385.00">
        <ride waitingTime="389.00" vehicle="t_2" depart="14427.00" arrival="14812.00" arrivalPos="217.94" duration="385.00" routeLength="6039.99" timeLoss="44.73"/>
    </personinfo>
    <personinfo id="71" depart="14617.00" type="DEFAULT_PEDTYPE" speedFactor="1.04" duration="417.00" waitingTime="34.00" timeLoss="71.47" traveltime="383.00">
        <ride waitingTime="34.00" vehicle="t_6" depart="14651.00" arrival="15034.00" arrivalPos="60.44" duration="383.00" routeLength="4934.09" timeLoss="71.47"/>
    </personinfo>
    <personinfo id="72" depart="14788.00" type="DEFAULT_PEDTYPE" speedFactor="1.04" duration="478.00" waitingTime="17.00" timeLoss="113.09" traveltime="461.00">
        <ride waitingTime="17.00" vehicle="t_9" depart="14805.00" arrival="15266.00" arrivalPos="58.90" duration="461.00" routeLength="5902.83" timeLoss="113.09"/>
    </personinfo>
    <personinfo id="73" depart="15080.00" type="DEFAULT_PEDTYPE" speedFactor="1.05" duration="426.00" waitingTime="36.00" timeLoss="94.28" traveltime="390.00">
        <ride waitingTime="36.00" vehicle="t_13" depart="15116.00" arrival="15506.00" arrivalPos="22.40" duration="390.00" routeLength="5065.40" timeLoss="94.28"/>
    </personinfo>
    <personinfo id="74" depart="15219.00" type="DEFAULT_PEDTYPE" speedFactor="0.89" duration="475.00" waitingTime="33.00" timeLoss="102.43" traveltime="442.00">
        <ride waitingTime="33.00" vehicle="t_11" depart="15252.00" arrival="15694.00" arrivalPos="18.94" duration="442.00" routeLength="5515.33" timeLoss="102.43"/>
    </personinfo>
    <personinfo id="75" depart="15749.00" type="DEFAULT_PEDTYPE" speedFactor="1.09" duration="457.00" waitingTime="60.00" timeLoss="87.31" traveltime="397.00">
        <ride waitingTime="60.00" vehicle="t_3" depart="15809.00" arrival="16206.00" arrivalPos="43.39" duration="397.00" routeLength="5024.01" timeLoss="87.31"/>
    </personinfo>
    <personinfo id="76" depart="15762.00" type="DEFAULT_PEDTYPE" speedFactor="0.98" duration="495.00" waitingTime="48.00" timeLoss="89.74" traveltime="447.00">
        <ride waitingTime="48.00" vehicle="t_4" depart="15810.00" arrival="16257.00" arrivalPos="58.90" duration="447.00" routeLength="5874.41" timeLoss="89.74"/>
    </personinfo>
    <personinfo id="77" depart="15908.00" type="DEFAULT_PEDTYPE" speedFactor="0.96" duration="504.00" waitingTime="38.00" timeLoss="111.46" traveltime="466.00">
        <ride waitingTime="38.00" vehicle="t_5" depart="15946.00" arrival="16412.00" arrivalPos="64.07" duration="466.00" routeLength="6326.67" timeLoss="111.46"/>
    </personinfo>
    <personinfo id="78" depart="16762.00" type="DEFAULT_PEDTYPE" speedFactor="0.96" duration="439.00" waitingTime="34.00" timeLoss="110.35" traveltime="405.00">
        <ride waitingTime="34.00" vehicle="t_11" depart="16796.00" arrival="17201.00" arrivalPos="77.52" duration="405.00" routeLength="5523.34" timeLoss="110.35"/>
    </personinfo>
    <personinfo id="79" depart="17109.00" type="DEFAULT_PEDTYPE" speedFactor="1.08" duration="566.00" waitingTime="66.00" timeLoss="91.11" traveltime="500.00">
        <ride waitingTime="66.00" vehicle="t_4" depart="17175.00" arrival="17675.00" arrivalPos="106.24" duration="500.00" routeLength="5972.63" timeLoss="91.11"/>
    </personinfo>
    <personinfo id="80" depart="17406.00" type="DEFAULT_PEDTYPE" speedFactor="0.82" duration="530.00" waitingTime="131.00" timeLoss="52.49" traveltime="399.00">
        <ride waitingTime="131.00" vehicle="t_5" depart="17537.00" arrival="17936.00" arrivalPos="23.00" duration="399.00" routeLength="6550.38" timeLoss="52.49"/>
    </personinfo>
    <personinfo id="81" depart="17434.00" type="DEFAULT_PEDTYPE" speedFactor="1.06" duration="508.00" waitingTime="104.00" timeLoss="71.40" traveltime="404.00">
        <ride waitingTime="104.00" vehicle="t_13" depart="17538.00" arrival="17942.00" arrivalPos="476.74" duration="404.00" routeLength="5463.61" timeLoss="71.40"/>
    </personinfo>
    <personinfo id="82" depart="17484.00" type="DEFAULT_PEDTYPE" speedFactor="1.09" duration="553.00" waitingTime="134.00" timeLoss="101.39" traveltime="419.00">