<?xml version="1.0" encoding="UTF-8"?>

<!-- generated on 2026-04-20T13:21:09.050699+08:00 by Eclipse SUMO sumo 1.26.0
<sumoConfiguration xmlns:xsi="http://www.w3.org/2001/XMLSchema-instance" xsi:noNamespaceSchemaLocation="http://sumo.dlr.de/xsd/sumoConfiguration.xsd">

    <input>
        <net-file value="D:\FYP\DeepPoolPer_Comparison2\SunwaySmallMap\osm.net.xml"/>
        <route-files value="D:\FYP\DeepPoolPer_Comparison2\SunwaySmallMap\self_request.rou.xml,D:\FYP\DeepPoolPer_Comparison2\SunwaySmallMap\taxi_more.rou.xml"/>
    </input>

    <output>
        <tripinfo-output value="D:\FYP\DeepPoolPer_Comparison2\SunwaySmallMap\tripinfos.xml"/>
        <statistic-output value="D:\FYP\DeepPoolPer_Comparison2\SunwaySmallMap\stats.xml"/>
    </output>

    <time>
        <step-length value="1.0"/>
    </time>

    <processing>
        <ignore-route-errors value="true"/>
        <tls.actuated.jam-threshold value="30"/>
    </processing>

    <routing>
        <device.rerouting.adaptation-steps value="18"/>
        <device.rerouting.adaptation-interval value="10"/>
    </routing>

    <report>
        <verbose value="true"/>
        <duration-log.statistics value="true"/>
        <no-step-log value="true"/>
    </report>

    <taxi_device>
        <device.taxi.dispatch-algorithm value="traci"/>
        <device.taxi.idle-algorithm value="stop"/>
    </taxi_device>

    <traci_server>
        <remote-port value="54513"/>
    </traci_server>

    <gui_only>
        <gui-settings-file value="D:\FYP\DeepPoolPer_Comparison2\SunwaySmallMap\osm.view.xml"/>
    </gui_only>

</sumoConfiguration>
-->

<tripinfos xmlns:xsi="http://www.w3.org/2001/XMLSchema-instance" xsi:noNamespaceSchemaLocation="http://sumo.dlr.de/xsd/tripinfo_file.xsd">
    <personinfo id="1" depart="454.00" type="DEFAULT_PEDTYPE" speedFactor="0.88" duration="251.00" waitingTime="74.00" timeLoss="24.34" traveltime="177.00">
        <ride waitingTime="74.00" vehicle="t_12" depart="528.00" arrival="705.00" arrivalPos="74.37" duration="177.00" routeLength="1378.65" timeLoss="24.34"/>
    </personinfo>
    <personinfo id="0" depart="70.00" type="DEFAULT_PEDTYPE" speedFactor="1.06" duration="660.00" waitingTime="209.00" timeLoss="93.48" traveltime="451.00">
        <ride waitingTime="209.00" vehicle="t_7" depart="279.00" arrival="730.00" arrivalPos="77.65" duration="451.00" routeLength="5748.38" timeLoss="93.48"/>
    </personinfo>
    <personinfo id="3" depart="1093.00" type="DEFAULT_PEDTYPE" speedFactor="1.14" duration="377.00" waitingTime="89.00" timeLoss="30.31" traveltime="288.00">
        <ride waitingTime="89.00" vehicle="t_13" depart="1182.00" arrival="1470.00" arrivalPos="125.51" duration="288.00" routeLength="2915.20" timeLoss="30.31"/>
    </personinfo>
    <personinfo id="2" depart="1083.00" type="DEFAULT_PEDTYPE" speedFactor="0.99" duration="435.00" waitingTime="116.00" timeLoss="56.76" traveltime="319.00">
        <ride waitingTime="116.00" vehicle="t_5" depart="1199.00" arrival="1518.00" arrivalPos="77.65" duration="319.00" routeLength="4227.38" timeLoss="56.76"/>
    </personinfo>
    <personinfo id="9" depart="1456.00" type="DEFAULT_PEDTYPE" speedFactor="0.89" duration="183.00" waitingTime="31.00" timeLoss="16.23" traveltime="152.00">
        <ride waitingTime="31.00" vehicle="t_10" depart="1487.00" arrival="1639.00" arrivalPos="27.15" duration="152.00" routeLength="1039.46" timeLoss="16.23"/>
    </personinfo>
    <personinfo id="6" depart="1309.00" type="DEFAULT_PEDTYPE" speedFactor="1.08" duration="330.00" waitingTime="38.00" timeLoss="49.75" traveltime="292.00">
        <ride waitingTime="38.00" vehicle="t_11" depart="1347.00" arrival="1639.00" arrivalPos="117.72" duration="292.00" routeLength="3463.92" timeLoss="49.75"/>
    </personinfo>
    <personinfo id="4" depart="1229.00" type="DEFAULT_PEDTYPE" speedFactor="1.02" duration="502.00" waitingTime="54.00" timeLoss="88.55" traveltime="448.00">
        <ride waitingTime="54.00" vehicle="t_7" depart="1283.00" arrival="1731.00" arrivalPos="105.07" duration="448.00" routeLength="5318.94" timeLoss="88.55"/>
    </personinfo>
    <personinfo id="7" depart="1317.00" type="DEFAULT_PEDTYPE" speedFactor="0.73" duration="450.00" waitingTime="151.00" timeLoss="70.46" traveltime="299.00">
        <ride waitingTime="151.00" vehicle="t_9" depart="1468.00" arrival="1767.00" arrivalPos="139.84" duration="299.00" routeLength="3651.10" timeLoss="70.46"/>
    </personinfo>
    <personinfo id="8" depart="1372.00" type="DEFAULT_PEDTYPE" speedFactor="1.14" duration="401.00" waitingTime="209.00" timeLoss="43.26" traveltime="192.00">
        <ride waitingTime="209.00" vehicle="t_1" depart="1581.00" arrival="1773.00" arrivalPos="66.56" duration="192.00" routeLength="1903.90" timeLoss="43.26"/>
    </personinfo>
    <personinfo id="10" depart="1468.00" type="DEFAULT_PEDTYPE" speedFactor="1.00" duration="325.00" waitingTime="107.00" timeLoss="56.21" traveltime="218.00">
        <ride waitingTime="107.00" vehicle="t_3" depart="1575.00" arrival="1793.00" arrivalPos="13.58" duration="218.00" routeLength="1904.81" timeLoss="56.21"/>
    </personinfo>
    <personinfo id="5" depart="1251.00" type="DEFAULT_PEDTYPE" speedFactor="0.97" duration="550.00" waitingTime="135.00" timeLoss="62.15" traveltime="415.00">
        <ride waitingTime="135.00" vehicle="t_4" depart="1386.00" arrival="1801.00" arrivalPos="105.07" duration="415.00" routeLength="5349.82" timeLoss="62.15"/>
    </personinfo>
    <personinfo id="11" depart="1531.00" type="DEFAULT_PEDTYPE" speedFactor="0.97" duration="362.00" waitingTime="89.00" timeLoss="40.25" traveltime="273.00">
        <ride waitingTime="89.00" vehicle="t_6" depart="1620.00" arrival="1893.00" arrivalPos="11.40" duration="273.00" routeLength="2934.94" timeLoss="40.25"/>
    </personinfo>
    <personinfo id="12" depart="1850.00" type="DEFAULT_PEDTYPE" speedFactor="1.09" duration="456.00" waitingTime="70.00" timeLoss="79.76" traveltime="386.00">
        <ride waitingTime="70.00" vehicle="t_7" depart="1920.00" arrival="2306.00" arrivalPos="757.86" duration="386.00" routeLength="3382.68" timeLoss="79.76"/>
    </personinfo>
    <personinfo id="14" depart="2024.00" type="DEFAULT_PEDTYPE" speedFactor="0.94" duration="410.00" waitingTime="132.00" timeLoss="46.68" traveltime="278.00">
        <ride waitingTime="132.00" vehicle="t_10" depart="2156.00" arrival="2434.00" arrivalPos="77.65" duration="278.00" routeLength="2884.52" timeLoss="46.68"/>
    </personinfo>
    <personinfo id="13" depart="2003.00" type="DEFAULT_PEDTYPE" speedFactor="0.98" duration="619.00" waitingTime="144.00" timeLoss="129.31" traveltime="475.00">
        <ride waitingTime="144.00" vehicle="t_13" depart="2147.00" arrival="2622.00" arrivalPos="127.70" duration="475.00" routeLength="5759.85" timeLoss="129.31"/>
    </personinfo>
    <personinfo id="17" depart="2773.00" type="DEFAULT_PEDTYPE" speedFactor="1.10" duration="311.00" waitingTime="67.00" timeLoss="27.68" traveltime="244.00">
        <ride waitingTime="67.00" vehicle="t_4" depart="2840.00" arrival="3084.00" arrivalPos="38.69" duration="244.00" routeLength="2673.50" timeLoss="27.68"/>
    </personinfo>
    <personinfo id="15" depart="2590.00" type="DEFAULT_PEDTYPE" speedFactor="1.11" duration="560.00" waitingTime="123.00" timeLoss="63.98" traveltime="437.00">
        <ride waitingTime="123.00" vehicle="t_2" depart="2713.00" arrival="3150.00" arrivalPos="86.92" duration="437.00" routeLength="5453.16" timeLoss="63.98"/>
    </personinfo>
    <personinfo id="16" depart="2696.00" type="DEFAULT_PEDTYPE" speedFactor="0.99" duration="526.00" waitingTime="103.00" timeLoss="72.61" traveltime="423.00">
        <ride waitingTime="103.00" vehicle="t_1" depart="2799.00" arrival="3222.00" arrivalPos="105.07" duration="423.00" routeLength="5715.57" timeLoss="72.61"/>
    </personinfo>
    <personinfo id="18" depart="2858.00" type="DEFAULT_PEDTYPE" speedFactor="0.98" duration="390.00" waitingTime="155.00" timeLoss="21.68" traveltime="235.00">
        <ride waitingTime="155.00" vehicle="t_11" depart="3013.00" arrival="3248.00" arrivalPos="68.01" duration="235.00" routeLength="2619.86" timeLoss="21.68"/>
    </personinfo>
    <personinfo id="19" depart="3086.00" type="DEFAULT_PEDTYPE" speedFactor="1.04" duration="402.00" waitingTime="140.00" timeLoss="37.47" traveltime="262.00">
        <ride waitingTime="140.00" vehicle="t_2" depart="3226.00" arrival="3488.00" arrivalPos="139.40" duration="262.00" routeLength="2615.41" timeLoss="37.47"/>
    </personinfo>
    <personinfo id="20" depart="3344.00" type="DEFAULT_PEDTYPE" speedFactor="1.16" duration="148.00" waitingTime="33.00" timeLoss="8.36" traveltime="115.00">
        <ride waitingTime="33.00" vehicle="t_3" depart="3377.00" arrival="3492.00" arrivalPos="14.88" duration="115.00" routeLength="905.13" timeLoss="8.36"/>
    </personinfo>
    <personinfo id="23" depart="3567.00" type="DEFAULT_PEDTYPE" speedFactor="1.05" duration="228.00" waitingTime="57.00" timeLoss="17.51" traveltime="171.00">
        <ride waitingTime="57.00" vehicle="t_10" depart="3624.00" arrival="3795.00" arrivalPos="70.28" duration="171.00" routeLength="1734.65" timeLoss="17.51"/>
    </personinfo>
    <personinfo id="21" depart="3358.00" type="DEFAULT_PEDTYPE" speedFactor="0.92" duration="442.00" waitingTime="144.00" timeLoss="52.57" traveltime="298.00">
        <ride waitingTime="144.00" vehicle="t_13" depart="3502.00" arrival="3800.00" arrivalPos="117.72" duration="298.00" routeLength="3463.92" timeLoss="52.57"/>
    </personinfo>
    <personinfo id="22" depart="3529.00" type="DEFAULT_PEDTYPE" speedFactor="1.03" duration="343.00" waitingTime="145.00" timeLoss="40.79" traveltime="198.00">
        <ride waitingTime="145.00" vehicle="t_5" depart="3674.00" arrival="3872.00" arrivalPos="18.57" duration="198.00" routeLength="1972.01" timeLoss="40.79"/>
    </personinfo>
    <personinfo id="24" depart="4113.00" type="DEFAULT_PEDTYPE" speedFactor="0.93" duration="295.00" waitingTime="164.00" timeLoss="9.43" traveltime="131.00">
        <ride waitingTime="164.00" vehicle="t_1" depart="4277.00" arrival="4408.00" arrivalPos="23.96" duration="131.00" routeLength="761.74" timeLoss="9.43"/>
    </personinfo>
    <personinfo id="25" depart="4762.00" type="DEFAULT_PEDTYPE" speedFactor="0.99" duration="490.00" waitingTime="108.00" timeLoss="107.50" traveltime="382.00">
        <ride waitingTime="108.00" vehicle="t_9" depart="4870.00" arrival="5252.00" arrivalPos="52.47" duration="382.00" routeLength="4909.19" timeLoss="107.50"/>
    </personinfo>
    <personinfo id="26" depart="5290.00" type="DEFAULT_PEDTYPE" speedFactor="1.00" duration="399.00" waitingTime="167.00" timeLoss="56.32" traveltime="232.00">
        <ride waitingTime="167.00" vehicle="t_11" depart="5457.00" arrival="5689.00" arrivalPos="117.72" duration="232.00" routeLength="1767.05" timeLoss="56.32"/>
    </personinfo>
    <personinfo id="27" depart="5355.00" type="DEFAULT_PEDTYPE" speedFactor="1.13" duration="346.00" waitingTime="75.00" timeLoss="32.97" traveltime="271.00">
        <ride waitingTime="75.00" vehicle="t_7" depart="5430.00" arrival="5701.00" arrivalPos="45.85" duration="271.00" routeLength="3249.42" timeLoss="32.97"/>
    </personinfo>
    <personinfo id="28" depart="5371.00" type="DEFAULT_PEDTYPE" speedFactor="1.02" duration="345.00" waitingTime="78.00" timeLoss="26.55" traveltime="267.00">
        <ride waitingTime="78.00" vehicle="t_10" depart="5449.00" arrival="5716.00" arrivalPos="3.04" duration="267.00" routeLength="2563.12" timeLoss="26.55"/>
    </personinfo>
    <personinfo id="30" depart="5783.00" type="DEFAULT_PEDTYPE" speedFactor="0.93" duration="438.00" waitingTime="27.00" timeLoss="65.46" traveltime="411.00">
        <ride waitingTime="27.00" vehicle="t_3" depart="5810.00" arrival="6221.00" arrivalPos="892.96" duration="411.00" routeLength="4334.16" timeLoss="65.46"/>
    </personinfo>
    <personinfo id="29" depart="5737.00" type="DEFAULT_PEDTYPE" speedFactor="0.99" duration="486.00" waitingTime="72.00" timeLoss="147.62" traveltime="414.00">
        <ride waitingTime="72.00" vehicle="t_13" depart="5809.00" arrival="6223.00" arrivalPos="117.15" duration="414.00" routeLength="4982.07" timeLoss="147.62"/>
    </personinfo>
    <personinfo id="31" depart="6004.00" type="DEFAULT_PEDTYPE" speedFactor="0.95" duration="399.00" waitingTime="54.00" timeLoss="52.83" traveltime="345.00">
        <ride waitingTime="54.00" vehicle="t_5" depart="6058.00" arrival="6403.00" arrivalPos="26.00" duration="345.00" routeLength="4658.71" timeLoss="52.83"/>
    </personinfo>
    <personinfo id="32" depart="6017.00" type="DEFAULT_PEDTYPE" speedFactor="1.03" duration="424.00" waitingTime="215.00" timeLoss="37.27" traveltime="209.00">
        <ride waitingTime="215.00" vehicle="t_8" depart="6232.00" arrival="6441.00" arrivalPos="85.99" duration="209.00" routeLength="1666.40" timeLoss="37.27"/>
    </personinfo>
    <personinfo id="33" depart="6340.00" type="DEFAULT_PEDTYPE" speedFactor="0.95" duration="342.00" waitingTime="113.00" timeLoss="26.57" traveltime="229.00">
        <ride waitingTime="113.00" vehicle="t_11" depart="6453.00" arrival="6682.00" arrivalPos="53.15" duration="229.00" routeLength="2120.84" timeLoss="26.57"/>
    </personinfo>
    <personinfo id="34" depart="7653.00" type="DEFAULT_PEDTYPE" speedFactor="0.85" duration="257.00" waitingTime="71.00" timeLoss="29.47" traveltime="186.00">
        <ride waitingTime="71.00" vehicle="t_1" depart="7724.00" arrival="7910.00" arrivalPos="18.89" duration="186.00" routeLength="1907.05" timeLoss="29.47"/>
    </personinfo>
    <personinfo id="36" depart="8186.00" type="DEFAULT_PEDTYPE" speedFactor="0.84" duration="366.00" waitingTime="123.00" timeLoss="18.54" traveltime="243.00">
        <ride waitingTime="123.00" vehicle="t_2" depart="8309.00" arrival="8552.00" arrivalPos="88.03" duration="243.00" routeLength="3524.56" timeLoss="18.54"/>
    </personinfo>
    <personinfo id="35" depart="7996.00" type="DEFAULT_PEDTYPE" speedFactor="1.01" duration="680.00" waitingTime="185.00" timeLoss="112.31" traveltime="495.00">
        <ride waitingTime="185.00" vehicle="t_14" depart="8181.00" arrival="8676.00" arrivalPos="52.47" duration="495.00" routeLength="6223.34" timeLoss="112.31"/>
    </personinfo>
    <personinfo id="39" depart="8779.00" type="DEFAULT_PEDTYPE" speedFactor="0.96" duration="245.00" waitingTime="77.00" timeLoss="24.45" traveltime="168.00">
        <ride waitingTime="77.00" vehicle="t_5" depart="8856.00" arrival="9024.00" arrivalPos="14.88" duration="168.00" routeLength="1384.42" timeLoss="24.45"/>
    </personinfo>
    <personinfo id="37" depart="8618.00" type="DEFAULT_PEDTYPE" speedFactor="1.12" duration="425.00" waitingTime="111.00" timeLoss="57.24" traveltime="314.00">
        <ride waitingTime="111.00" vehicle="t_10" depart="8729.00" arrival="9043.00" arrivalPos="22.37" duration="314.00" routeLength="3724.42" timeLoss="57.24"/>
    </personinfo>
    <personinfo id="38" depart="8627.00" type="DEFAULT_PEDTYPE" speedFactor="1.10" duration="417.00" waitingTime="89.00" timeLoss="62.08" traveltime="328.00">
        <ride waitingTime="89.00" vehicle="t_9" depart="8716.00" arrival="9044.00" arrivalPos="29.51" duration="328.00" routeLength="4222.94" timeLoss="62.08"/>
    </personinfo>
    <personinfo id="42" depart="9140.00" type="DEFAULT_PEDTYPE" speedFactor="0.99" duration="136.00" waitingTime="30.00" timeLoss="6.97" traveltime="106.00">
        <ride waitingTime="30.00" vehicle="t_5" depart="9170.00" arrival="9276.00" arrivalPos="15.91" duration="106.00" routeLength="470.54" timeLoss="6.97"/>
    </personinfo>
    <personinfo id="41" depart="9137.00" type="DEFAULT_PEDTYPE" speedFactor="0.97" duration="373.00" waitingTime="177.00" timeLoss="11.10" traveltime="196.00">
        <ride waitingTime="177.00" vehicle="t_7" depart="9314.00" arrival="9510.00" arrivalPos="37.52" duration="196.00" routeLength="2145.78" timeLoss="11.10"/>
    </personinfo>
    <personinfo id="40" depart="9055.00" type="DEFAULT_PEDTYPE" speedFactor="0.96" duration="503.00" waitingTime="87.00" timeLoss="110.51" traveltime="416.00">
        <ride waitingTime="87.00" vehicle="t_4" depart="9142.00" arrival="9558.00" arrivalPos="41.64" duration="416.00" routeLength="5462.56" timeLoss="110.51"/>
    </personinfo>
    <personinfo id="43" depart="9572.00" type="DEFAULT_PEDTYPE" speedFactor="0.91" duration="282.00" waitingTime="27.00" timeLoss="26.64" traveltime="255.00">
        <ride waitingTime="27.00" vehicle="t_5" depart="9599.00" arrival="9854.00" arrivalPos="32.30" duration="255.00" routeLength="2966.32" timeLoss="26.64"/>
    </personinfo>
    <personinfo id="44" depart="9690.00" type="DEFAULT_PEDTYPE" speedFactor="1.11" duration="408.00" waitingTime="117.00" timeLoss="50.26" traveltime="291.00">
        <ride waitingTime="117.00" vehicle="t_9" depart="9807.00" arrival="10098.00" arrivalPos="26.51" duration="291.00" routeLength="3587.47" timeLoss="50.26"/>
    </personinfo>
    <personinfo id="45" depart="10210.00" type="DEFAULT_PEDTYPE" speedFactor="0.98" duration="330.00" waitingTime="121.00" timeLoss="59.40" traveltime="209.00">
        <ride waitingTime="121.00" vehicle="t_11" depart="10331.00" arrival="10540.00" arrivalPos="13.58" duration="209.00" routeLength="2011.58" timeLoss="59.40"/>
    </personinfo>
    <personinfo id="46" depart="10554.00" type="DEFAULT_PEDTYPE" speedFactor="0.90" duration="419.00" waitingTime="72.00" timeLoss="92.71" traveltime="347.00">
        <ride waitingTime="72.00" vehicle="t_0" depart="10626.00" arrival="10973.00" arrivalPos="0.47" duration="347.00" routeLength="3771.85" timeLoss="92.71"/>
    </personinfo>
    <personinfo id="47" depart="11006.00" type="DEFAULT_PEDTYPE" speedFactor="0.99" duration="274.00" waitingTime="27.00" timeLoss="47.92" traveltime="247.00">
        <ride waitingTime="27.00" vehicle="t_5" depart="11033.00" arrival="11280.00" arrivalPos="339.41" duration="247.00" routeLength="2015.89" timeLoss="47.92"/>
    </personinfo>
    <personinfo id="48" depart="11292.00" type="DEFAULT_PEDTYPE" speedFactor="1.01" duration="415.00" waitingTime="96.00" timeLoss="65.94" traveltime="319.00">
        <ride waitingTime="96.00" vehicle="t_10" depart="11388.00" arrival="11707.00" arrivalPos="273.01" duration="319.00" routeLength="3102.98" timeLoss="65.94"/>
    </personinfo>
    <personinfo id="49" depart="11924.00" type="DEFAULT_PEDTYPE" speedFactor="1.03" duration="539.00" waitingTime="175.00" timeLoss="54.50" traveltime="364.00">
        <ride waitingTime="175.00" vehicle="t_11" depart="12099.00" arrival="12463.00" arrivalPos="127.70" duration="364.00" routeLength="5421.73" timeLoss="54.50"/>
    </personinfo>
    <personinfo id="52" depart="12710.00" type="DEFAULT_PEDTYPE" speedFactor="1.07" duration="302.00" waitingTime="52.00" timeLoss="22.03" traveltime="250.00">
        <ride waitingTime="52.00" vehicle="t_8" depart="12762.00" arrival="13012.00" arrivalPos="105.07" duration="250.00" routeLength="2367.27" timeLoss="22.03"/>
    </personinfo>
    <personinfo id="51" depart="12505.00" type="DEFAULT_PEDTYPE" speedFactor="0.97" duration="544.00" waitingTime="222.00" timeLoss="68.34" traveltime="322.00">
        <ride waitingTime="222.00" vehicle="t_4" depart="12727.00" arrival="13049.00" arrivalPos="240.81" duration="322.00" routeLength="3149.26" timeLoss="68.34"/>
    </personinfo>
    <personinfo id="50" depart="12471.00" type="DEFAULT_PEDTYPE" speedFactor="0.90" duration="637.00" waitingTime="243.00" timeLoss="88.68" traveltime="394.00">
        <ride waitingTime="243.00" vehicle="t_1" depart="12714.00" arrival="13108.00" arrivalPos="38.27" duration="394.00" routeLength="4954.98" timeLoss="88.68"/>
    </personinfo>
    <personinfo id="53" depart="12755.00" type="DEFAULT_PEDTYPE" speedFactor="1.22" duration="401.00" waitingTime="91.00" timeLoss="38.43" traveltime="310.00">
        <ride waitingTime="91.00" vehicle="t_0" depart="12846.00" arrival="13156.00" arrivalPos="979.46" duration="310.00" routeLength="3050.80" timeLoss="38.43"/>
    </personinfo>
    <personinfo id="54" depart="13004.00" type="DEFAULT_PEDTYPE" speedFactor="1.07" duration="283.00" waitingTime="106.00" timeLoss="12.22" traveltime="177.00">
        <ride waitingTime="106.00" vehicle="t_10" depart="13110.00" arrival="13287.00" arrivalPos="75.73" duration="177.00" routeLength="1621.79" timeLoss="12.22"/>
    </personinfo>
    <personinfo id="55" depart="13154.00" type="DEFAULT_PEDTYPE" speedFactor="0.98" duration="448.00" waitingTime="72.00" timeLoss="112.72" traveltime="376.00">
        <ride waitingTime="72.00" vehicle="t_8" depart="13226.00" arrival="13602.00" arrivalPos="56.18" duration="376.00" routeLength="4211.29" timeLoss="112.72"/>
    </personinfo>
    <personinfo id="57" depart="13812.00" type="DEFAULT_PEDTYPE" speedFactor="1.03" duration="396.00" waitingTime="118.00" timeLoss="48.57" traveltime="278.00">
        <ride waitingTime="118.00" vehicle="t_0" depart="13930.00" arrival="14208.00" arrivalPos="11.40" duration="278.00" routeLength="3058.81" timeLoss="48.57"/>
    </personinfo>
    <personinfo id="56" depart="13716.00" type="DEFAULT_PEDTYPE" speedFactor="0.83" duration="610.00" waitingTime="215.00" timeLoss="64.82" traveltime="395.00">
        <ride waitingTime="215.00" vehicle="t_9" depart="13931.00" arrival="14326.00" arrivalPos="86.92" duration="395.00" routeLength="5448.07" timeLoss="64.82"/>
    </personinfo>
    <personinfo id="59" depart="14283.00" type="DEFAULT_PEDTYPE" speedFactor="1.06" duration="310.00" waitingTime="111.00" timeLoss="19.22" traveltime="199.00">
        <ride waitingTime="111.00" vehicle="t_5" depart="14394.00" arrival="14593.00" arrivalPos="105.07" duration="199.00" routeLength="1749.67" timeLoss="19.22"/>
    </personinfo>
    <personinfo id="60" depart="14450.00" type="DEFAULT_PEDTYPE" speedFactor="0.88" duration="222.00" waitingTime="112.00" timeLoss="7.24" traveltime="110.00">
        <ride waitingTime="112.00" vehicle="t_7" depart="14562.00" arrival="14672.00" arrivalPos="15.91" duration="110.00" routeLength="470.55" timeLoss="7.24"/>
    </personinfo>
    <personinfo id="58" depart="14157.00" type="DEFAULT_PEDTYPE" speedFactor="0.80" duration="570.00" waitingTime="233.00" timeLoss="31.99" traveltime="337.00">
        <ride waitingTime="233.00" vehicle="t_6" depart="14390.00" arrival="14727.00" arrivalPos="53.15" duration="337.00" routeLength="3916.91" timeLoss="31.99"/>
    </personinfo>
    <personinfo id="61" depart="14466.00" type="DEFAULT_PEDTYPE" speedFactor="0.99" duration="418.00" waitingTime="113.00" timeLoss="34.95" traveltime="305.00">
        <ride waitingTime="113.00" vehicle="t_10" depart="14579.00" arrival="14884.00" arrivalPos="18.37" duration="305.00" routeLength="4627.82" timeLoss="34.95"/>
    </personinfo>
    <personinfo id="63" depart="14725.00" type="DEFAULT_PEDTYPE" speedFactor="1.04" duration="281.00" waitingTime="107.00" timeLoss="27.52" traveltime="174.00">
        <ride waitingTime="107.00" vehicle="t_8" depart="14832.00" arrival="15006.00" arrivalPos="18.57" duration="174.00" routeLength="1601.12" timeLoss="27.52"/>
    </personinfo>
    <personinfo id="62" depart="14617.00" type="DEFAULT_PEDTYPE" speedFactor="0.77" duration="422.00" waitingTime="138.00" timeLoss="43.13" traveltime="284.00">
        <ride waitingTime="138.00" vehicle="t_5" depart="14755.00" arrival="15039.00" arrivalPos="240.81" duration="284.00" routeLength="2983.45" timeLoss="43.13"/>
    </personinfo>
    <personinfo id="64" depart="14788.00" type="DEFAULT_PEDTYPE" speedFactor="1.03" duration="316.00" waitingTime="91.00" timeLoss="64.03" traveltime="225.00">
        <ride waitingTime="91.00" vehicle="t_6" depart="14879.00" arrival="15104.00" arrivalPos="18.37" duration="225.00" routeLength="1816.40" timeLoss="64.03"/>
    </personinfo>
    <personinfo id="65" depart="15080.00" type="DEFAULT_PEDTYPE" speedFactor="0.87" duration="322.00" waitingTime="71.00" timeLoss="51.24" traveltime="251.00">
        <ride waitingTime="71.00" vehicle="t_13" depart="15151.00" arrival="15402.00" arrivalPos="52.47" duration="251.00" routeLength="2391.92" timeLoss="51.24"/>
    </personinfo>
    <personinfo id="66" depart="15159.00" type="DEFAULT_PEDTYPE" speedFactor="0.97" duration="392.00" waitingTime="114.00" timeLoss="58.80" traveltime="278.00">
        <ride waitingTime="114.00" vehicle="t_7" depart="15273.00" arrival="15551.00" arrivalPos="70.28" duration="278.00" routeLength="3182.55" timeLoss="58.80"/>
    </personinfo>
    <personinfo id="67" depart="15289.00" type="DEFAULT_PEDTYPE" speedFactor="1.02" duration="402.00" waitingTime="174.00" timeLoss="78.11" traveltime="228.00">
        <ride waitingTime="174.00" vehicle="t_12" depart="15463.00" arrival="15691.00" arrivalPos="18.37" duration="228.00" routeLength="1816.45" timeLoss="78.11"/>
    </personinfo>
    <personinfo id="68" depart="15466.00" type="DEFAULT_PEDTYPE" speedFactor="1.07" duration="369.00" waitingTime="163.00" timeLoss="22.04" traveltime="206.00">
        <ride waitingTime="163.00" vehicle="t_1" depart="15629.00" arrival="15835.00" arrivalPos="33.53" duration="206.00" routeLength="1926.48" timeLoss="22.04"/>
    </personinfo>
    <personinfo id="70" depart="16135.00" type="DEFAULT_PEDTYPE" speedFactor="1.09" duration="239.00" waitingTime="45.00" timeLoss="36.08" traveltime="194.00">
        <ride waitingTime="45.00" vehicle="t_10" depart="16180.00" arrival="16374.00" arrivalPos="63.74" duration="194.00" routeLength="1607.50" timeLoss="36.08"/>
    </personinfo>
    <personinfo id="71" depart="16314.00" type="DEFAULT_PEDTYPE" speedFactor="1.14" duration="315.00" waitingTime="147.00" timeLoss="15.86" traveltime="168.00">
        <ride waitingTime="147.00" vehicle="t_9" depart="16461.00" arrival="16629.00" arrivalPos="48.99" duration="168.00" routeLength="1362.57" timeLoss="15.86"/>
    </personinfo>
    <personinfo id="69" depart="16092.00" type="DEFAULT_PEDTYPE" speedFactor="0.93" duration="556.00" waitingTime="186.00" timeLoss="53.05" traveltime="370.00">
        <ride waitingTime="186.00" vehicle="t_11" depart="16278.00" arrival="16648.00" arrivalPos="88.03" duration="370.00" routeLength="5888.59" timeLoss="53.05"/>
    </personinfo>
    <personinfo id="74" depart="16602.00" type="DEFAULT_PEDTYPE" speedFactor="1.12" duration="373.00" waitingTime="68.00" timeLoss="38.26" traveltime="305.00">
        <ride waitingTime="68.00" vehicle="t_0" depart="16670.00" arrival="16975.00" arrivalPos="97.31" duration="305.00" routeLength="4198.43" timeLoss="38.26"/>
    </personinfo>
    <personinfo id="73" depart="16470.00" type="DEFAULT_PEDTYPE" speedFactor="0.92" duration="529.00" waitingTime="216.00" timeLoss="109.33" traveltime="313.00">
        <ride waitingTime="216.00" vehicle="t_12" depart="16686.00" arrival="16999.00" arrivalPos="85.47" duration="313.00" routeLength="2949.53" timeLoss="109.33"/>
    </personinfo>
    <personinfo id="72" depart="16458.00" type="DEFAULT_PEDTYPE" speedFactor="1.10" duration="634.00" waitingTime="177.00" timeLoss="102.23" traveltime="457.00">
        <ride waitingTime="177.00" vehicle="t_7" depart="16635.00" arrival="17092.00" arrivalPos="117.72" duration="457.00" routeLength="6034.16" timeLoss="102.23"/>
    </personinfo>
    <personinfo id="75" depart="17109.00" type="DEFAULT_PEDTYPE" speedFactor="1.03" duration="418.00" waitingTime="85.00" timeLoss="61.70" traveltime="333.00">
        <ride waitingTime="85.00" vehicle="t_0" depart="17194.00" arrival="17527.00" arrivalPos="66.56" duration="333.00" routeLength="4340.82" timeLoss="61.70"/>
    </personinfo>
    <personinfo id="76" depart="17434.00" type="DEFAULT_PEDTYPE" speedFactor="0.97" duration="409.00" waitingTime="96.00" timeLoss="88.59" traveltime="313.00">
        <ride waitingTime="96.00" vehicle="t_4" depart="17530.00" arrival="17843.00" arrivalPos="3.04" duration="313.00" routeLength="2791.35" timeLoss="88.59"/>
    </personinfo>
    <personinfo id="77" depart="17484.00" type="DEFAULT_PEDTYPE" speedFactor="1.04" duration="499.00" waitingTime="180.00" timeLoss="52.53" traveltime="319.00">
        <ride waitingTime="180.00" vehicle="t_10" depart="17664.00" arrival="17983.00" arrivalPos="81.57" duration="319.00" routeLength="4429.29" timeLoss="52.53"/>
    </personinfo>
    <personinfo id="78" depart="17751.00" type="DEFAULT_PEDTYPE" speedFactor="0.97" duration="453.00" waitingTime="156.00" timeLoss="60.51" traveltime="297.00">
        <ride waitingTime="156.00" vehicle="t_1" depart="17907.00" arrival="18204.00" arrivalPos="13.58" duration="297.00" routeLength="3806.94" timeLoss="60.51"/>
    </personinfo>
    <personinfo id="79" depart="18306.00" type="DEFAULT_PEDTYPE" speedFactor="1.17" duration="463.00" waitingTime="58.00" timeLoss="78.20" traveltime="405.00">
        <ride waitingTime="58.00" vehicle="t_8" depart="18364.00" arrival="18769.00" arrivalPos="88.03" duration="405.00" routeLength="5557.72" timeLoss="78.20"/>
    </personinfo>
    <personinfo id="81" depart="18475.00" type="DEFAULT_PEDTYPE" speedFactor="1.05" duration="502.00" waitingTime="230.00" timeLoss="65.38" traveltime="272.00">
        <ride waitingTime="230.00" vehicle="t_9" depart="18705.00" arrival="18977.00" arrivalPos="46.21" duration="272.00" routeLength="2633.68" timeLoss="65.38"/>
    </personinfo>
    <personinfo id="80" depart="18389.00" type="DEFAULT_PEDTYPE" speedFactor="0.96" duration="661.00" waitingTime="216.00" timeLoss="84.22" traveltime="445.00">
        <ride waitingTime="216.00" vehicle="t_7" depart="18605.00" arrival="19050.00" arrivalPos="66.56" duration="445.00" routeLength="5593.46" timeLoss="84.22"/>