<?xml version="1.0" encoding="UTF-8"?>

<!-- generated on 2026-04-21T15:36:37.874699+08:00 by Eclipse SUMO sumo 1.26.0
<sumoConfiguration xmlns:xsi="http://www.w3.org/2001/XMLSchema-instance" xsi:noNamespaceSchemaLocation="http://sumo.dlr.de/xsd/sumoConfiguration.xsd">

    <input>
        <net-file value="D:\FYP\DeepPoolPer_Comparison2\SunwaySmallMap\osm.net.xml"/>
        <route-files value="D:\FYP\DeepPoolPer_Comparison2\SunwaySmallMap\self_request_300.rou.xml,D:\FYP\DeepPoolPer_Comparison2\SunwaySmallMap\taxi_more_300.rou.xml"/>
    </input>

    <output>
        <tripinfo-output value="D:\FYP\DeepPoolPer_Comparison2\SunwaySmallMap\tripinfos.xml"/>
        <statistic-output value="D:\FYP\DeepPoolPer_Comparison2\SunwaySmallMap\stats.xml"/>
    </output>

    <time>
        <step-length value="1.0"/>
    </time>

    <processing>
        <ignore-route-errors value="true"/>
        <tls.actuated.jam-threshold value="30"/>
    </processing>

    <routing>
        <device.rerouting.adaptation-steps value="18"/>
        <device.rerouting.adaptation-interval value="10"/>
    </routing>

    <report>
        <verbose value="true"/>
        <duration-log.statistics value="true"/>
        <no-step-log value="true"/>
    </report>

    <taxi_device>
        <device.taxi.dispatch-algorithm value="traci"/>
        <device.taxi.idle-algorithm value="stop"/>
    </taxi_device>

    <traci_server>
        <remote-port value="65011"/>
    </traci_server>

    <gui_only>
        <gui-settings-file value="D:\FYP\DeepPoolPer_Comparison2\SunwaySmallMap\osm.view.xml"/>
    </gui_only>

</sumoConfiguration>
-->

<tripinfos xmlns:xsi="http://www.w3.org/2001/XMLSchema-instance" xsi:noNamespaceSchemaLocation="http://sumo.dlr.de/xsd/tripinfo_file.xsd">
    <personinfo id="0" depart="140.00" type="DEFAULT_PEDTYPE" speedFactor="1.06" duration="554.00" waitingTime="140.00" timeLoss="70.45" traveltime="414.00">
        <ride waitingTime="140.00" vehicle="t_13" depart="280.00" arrival="694.00" arrivalPos="7.94" duration="414.00" routeLength="5219.82" timeLoss="70.45"/>
    </personinfo>
    <personinfo id="2" depart="573.00" type="DEFAULT_PEDTYPE" speedFactor="0.99" duration="489.00" waitingTime="91.00" timeLoss="76.88" traveltime="398.00">
        <ride waitingTime="91.00" vehicle="t_4" depart="664.00" arrival="1062.00" arrivalPos="20.31" duration="398.00" routeLength="5366.44" timeLoss="76.88"/>
    </personinfo>
    <personinfo id="1" depart="540.00" type="DEFAULT_PEDTYPE" speedFactor="0.88" duration="625.00" waitingTime="181.00" timeLoss="67.69" traveltime="444.00">
        <ride waitingTime="181.00" vehicle="t_9" depart="721.00" arrival="1165.00" arrivalPos="110.18" duration="444.00" routeLength="5946.88" timeLoss="67.69"/>
    </personinfo>
    <personinfo id="3" depart="644.00" type="DEFAULT_PEDTYPE" speedFactor="1.02" duration="582.00" waitingTime="202.00" timeLoss="58.76" traveltime="380.00">
        <ride waitingTime="202.00" vehicle="t_3" depart="846.00" arrival="1226.00" arrivalPos="45.67" duration="380.00" routeLength="5464.98" timeLoss="58.76"/>
    </personinfo>
    <personinfo id="4" depart="693.00" type="DEFAULT_PEDTYPE" speedFactor="0.97" duration="539.00" waitingTime="99.00" timeLoss="95.61" traveltime="440.00">
        <ride waitingTime="99.00" vehicle="t_13" depart="792.00" arrival="1232.00" arrivalPos="28.18" duration="440.00" routeLength="5568.42" timeLoss="95.61"/>
    </personinfo>
    <personinfo id="5" depart="990.00" type="DEFAULT_PEDTYPE" speedFactor="1.18" duration="543.00" waitingTime="148.00" timeLoss="76.83" traveltime="395.00">
        <ride waitingTime="148.00" vehicle="t_2" depart="1138.00" arrival="1533.00" arrivalPos="59.39" duration="395.00" routeLength="5046.96" timeLoss="76.83"/>
    </personinfo>
    <personinfo id="7" depart="1372.00" type="DEFAULT_PEDTYPE" speedFactor="0.96" duration="484.00" waitingTime="95.00" timeLoss="53.55" traveltime="389.00">
        <ride waitingTime="95.00" vehicle="t_7" depart="1467.00" arrival="1856.00" arrivalPos="73.66" duration="389.00" routeLength="5789.26" timeLoss="53.55"/>
    </personinfo>
    <personinfo id="6" depart="1018.00" type="DEFAULT_PEDTYPE" speedFactor="1.07" duration="984.00" waitingTime="218.00" timeLoss="132.01" traveltime="766.00">
        <ride waitingTime="218.00" vehicle="t_7" depart="1236.00" arrival="2002.00" arrivalPos="34.06" duration="766.00" routeLength="9896.78" timeLoss="132.01"/>
    </personinfo>
    <personinfo id="8" depart="1724.00" type="DEFAULT_PEDTYPE" speedFactor="0.90" duration="540.00" waitingTime="105.00" timeLoss="80.94" traveltime="435.00">
        <ride waitingTime="105.00" vehicle="t_8" depart="1829.00" arrival="2264.00" arrivalPos="77.94" duration="435.00" routeLength="5166.65" timeLoss="80.94"/>
    </personinfo>
    <personinfo id="9" depart="1878.00" type="DEFAULT_PEDTYPE" speedFactor="1.10" duration="560.00" waitingTime="142.00" timeLoss="83.44" traveltime="418.00">
        <ride waitingTime="142.00" vehicle="t_3" depart="2020.00" arrival="2438.00" arrivalPos="22.44" duration="418.00" routeLength="6206.59" timeLoss="83.44"/>
    </personinfo>
    <personinfo id="10" depart="1964.00" type="DEFAULT_PEDTYPE" speedFactor="0.83" duration="632.00" waitingTime="219.00" timeLoss="61.24" traveltime="413.00">
        <ride waitingTime="219.00" vehicle="t_1" depart="2183.00" arrival="2596.00" arrivalPos="189.02" duration="413.00" routeLength="5326.73" timeLoss="61.24"/>
    </personinfo>
    <personinfo id="12" depart="2089.00" type="DEFAULT_PEDTYPE" speedFactor="1.04" duration="575.00" waitingTime="178.00" timeLoss="60.94" traveltime="397.00">
        <ride waitingTime="178.00" vehicle="t_11" depart="2267.00" arrival="2664.00" arrivalPos="57.81" duration="397.00" routeLength="5722.29" timeLoss="60.94"/>
    </personinfo>
    <personinfo id="11" depart="2003.00" type="DEFAULT_PEDTYPE" speedFactor="1.13" duration="675.00" waitingTime="264.00" timeLoss="87.25" traveltime="411.00">
        <ride waitingTime="264.00" vehicle="t_2" depart="2267.00" arrival="2678.00" arrivalPos="106.24" duration="411.00" routeLength="5098.93" timeLoss="87.25"/>
    </personinfo>
    <personinfo id="13" depart="2182.00" type="DEFAULT_PEDTYPE" speedFactor="0.96" duration="552.00" waitingTime="126.00" timeLoss="86.17" traveltime="426.00">
        <ride waitingTime="126.00" vehicle="t_8" depart="2308.00" arrival="2734.00" arrivalPos="93.30" duration="426.00" routeLength="4959.97" timeLoss="86.17"/>
    </personinfo>
    <personinfo id="14" depart="2368.00" type="DEFAULT_PEDTYPE" speedFactor="0.95" duration="717.00" waitingTime="272.00" timeLoss="67.70" traveltime="445.00">
        <ride waitingTime="272.00" vehicle="t_0" depart="2640.00" arrival="3085.00" arrivalPos="239.13" duration="445.00" routeLength="6185.29" timeLoss="67.70"/>
    </personinfo>
    <personinfo id="15" depart="3358.00" type="DEFAULT_PEDTYPE" speedFactor="1.08" duration="713.00" waitingTime="309.00" timeLoss="72.10" traveltime="404.00">
        <ride waitingTime="309.00" vehicle="t_8" depart="3667.00" arrival="4071.00" arrivalPos="22.26" duration="404.00" routeLength="5449.50" timeLoss="72.10"/>
    </personinfo>
    <personinfo id="16" depart="3529.00" type="DEFAULT_PEDTYPE" speedFactor="1.06" duration="712.00" waitingTime="294.00" timeLoss="93.06" traveltime="418.00">
        <ride waitingTime="294.00" vehicle="t_7" depart="3823.00" arrival="4241.00" arrivalPos="31.27" duration="418.00" routeLength="5058.01" timeLoss="93.06"/>
    </personinfo>
    <personinfo id="17" depart="3697.00" type="DEFAULT_PEDTYPE" speedFactor="0.88" duration="674.00" waitingTime="245.00" timeLoss="118.88" traveltime="429.00">
        <ride waitingTime="245.00" vehicle="t_1" depart="3942.00" arrival="4371.00" arrivalPos="246.07" duration="429.00" routeLength="5041.39" timeLoss="118.88"/>
    </personinfo>
    <personinfo id="19" depart="4525.00" type="DEFAULT_PEDTYPE" speedFactor="1.05" duration="492.00" waitingTime="79.00" timeLoss="85.21" traveltime="413.00">
        <ride waitingTime="79.00" vehicle="t_8" depart="4604.00" arrival="5017.00" arrivalPos="28.72" duration="413.00" routeLength="4768.85" timeLoss="85.21"/>
    </personinfo>
    <personinfo id="18" depart="4295.00" type="DEFAULT_PEDTYPE" speedFactor="0.88" duration="743.00" waitingTime="277.00" timeLoss="95.10" traveltime="466.00">
        <ride waitingTime="277.00" vehicle="t_9" depart="4572.00" arrival="5038.00" arrivalPos="55.26" duration="466.00" routeLength="6934.46" timeLoss="95.10"/>
    </personinfo>
    <personinfo id="20" depart="4557.00" type="DEFAULT_PEDTYPE" speedFactor="0.99" duration="569.00" waitingTime="65.00" timeLoss="165.23" traveltime="504.00">
        <ride waitingTime="65.00" vehicle="t_1" depart="4622.00" arrival="5126.00" arrivalPos="42.17" duration="504.00" routeLength="6005.97" timeLoss="165.23"/>
    </personinfo>
    <personinfo id="21" depart="4723.00" type="DEFAULT_PEDTYPE" speedFactor="1.01" duration="481.00" waitingTime="177.00" timeLoss="54.55" traveltime="304.00">
        <ride waitingTime="177.00" vehicle="t_12" depart="4900.00" arrival="5204.00" arrivalPos="31.71" duration="304.00" routeLength="4690.39" timeLoss="54.55"/>
    </personinfo>
    <personinfo id="23" depart="4762.00" type="DEFAULT_PEDTYPE" speedFactor="1.05" duration="596.00" waitingTime="122.00" timeLoss="133.18" traveltime="474.00">
        <ride waitingTime="122.00" vehicle="t_2" depart="4884.00" arrival="5358.00" arrivalPos="63.63" duration="474.00" routeLength="6169.55" timeLoss="133.18"/>
    </personinfo>
    <personinfo id="24" depart="4821.00" type="DEFAULT_PEDTYPE" speedFactor="1.00" duration="584.00" waitingTime="153.00" timeLoss="81.28" traveltime="431.00">
        <ride waitingTime="153.00" vehicle="t_13" depart="4974.00" arrival="5405.00" arrivalPos="74.44" duration="431.00" routeLength="6003.31" timeLoss="81.28"/>
    </personinfo>
    <personinfo id="26" depart="4947.00" type="DEFAULT_PEDTYPE" speedFactor="0.92" duration="459.00" waitingTime="11.00" timeLoss="108.88" traveltime="448.00">
        <ride waitingTime="11.00" vehicle="t_11" depart="4958.00" arrival="5406.00" arrivalPos="193.08" duration="448.00" routeLength="5505.06" timeLoss="108.88"/>
    </personinfo>
    <personinfo id="25" depart="4923.00" type="DEFAULT_PEDTYPE" speedFactor="0.90" duration="489.00" waitingTime="118.00" timeLoss="88.27" traveltime="371.00">
        <ride waitingTime="118.00" vehicle="t_7" depart="5041.00" arrival="5412.00" arrivalPos="41.48" duration="371.00" routeLength="4911.99" timeLoss="88.27"/>
    </personinfo>
    <personinfo id="27" depart="5028.00" type="DEFAULT_PEDTYPE" speedFactor="1.01" duration="441.00" waitingTime="42.00" timeLoss="112.89" traveltime="399.00">
        <ride waitingTime="42.00" vehicle="t_5" depart="5070.00" arrival="5469.00" arrivalPos="3.61" duration="399.00" routeLength="5835.53" timeLoss="112.89"/>
    </personinfo>
    <personinfo id="22" depart="4737.00" type="DEFAULT_PEDTYPE" speedFactor="1.02" duration="770.00" waitingTime="352.00" timeLoss="83.15" traveltime="418.00">
        <ride waitingTime="352.00" vehicle="t_6" depart="5089.00" arrival="5507.00" arrivalPos="86.64" duration="418.00" routeLength="4881.28" timeLoss="83.15"/>
    </personinfo>
    <personinfo id="28" depart="5327.00" type="DEFAULT_PEDTYPE" speedFactor="0.96" duration="632.00" waitingTime="211.00" timeLoss="99.30" traveltime="421.00">
        <ride waitingTime="211.00" vehicle="t_13" depart="5538.00" arrival="5959.00" arrivalPos="44.28" duration="421.00" routeLength="5274.49" timeLoss="99.30"/>
    </personinfo>
    <personinfo id="32" depart="5783.00" type="DEFAULT_PEDTYPE" speedFactor="0.92" duration="445.00" waitingTime="42.00" timeLoss="82.57" traveltime="403.00">
        <ride waitingTime="42.00" vehicle="t_2" depart="5825.00" arrival="6228.00" arrivalPos="203.88" duration="403.00" routeLength="5270.43" timeLoss="82.57"/>
    </personinfo>
    <personinfo id="31" depart="5767.00" type="DEFAULT_PEDTYPE" speedFactor="1.14" duration="463.00" waitingTime="35.00" timeLoss="90.83" traveltime="428.00">
        <ride waitingTime="35.00" vehicle="t_4" depart="5802.00" arrival="6230.00" arrivalPos="82.96" duration="428.00" routeLength="5294.53" timeLoss="90.83"/>
    </personinfo>
    <personinfo id="33" depart="5941.00" type="DEFAULT_PEDTYPE" speedFactor="1.01" duration="384.00" waitingTime="48.00" timeLoss="67.37" traveltime="336.00">
        <ride waitingTime="48.00" vehicle="t_3" depart="5989.00" arrival="6325.00" arrivalPos="42.41" duration="336.00" routeLength="4398.47" timeLoss="67.37"/>
    </personinfo>
    <personinfo id="29" depart="5675.00" type="DEFAULT_PEDTYPE" speedFactor="0.99" duration="672.00" waitingTime="248.00" timeLoss="73.06" traveltime="424.00">
        <ride waitingTime="248.00" vehicle="t_6" depart="5923.00" arrival="6347.00" arrivalPos="26.87" duration="424.00" routeLength="5137.93" timeLoss="73.06"/>
    </personinfo>
    <personinfo id="34" depart="6004.00" type="DEFAULT_PEDTYPE" speedFactor="1.09" duration="448.00" waitingTime="77.00" timeLoss="46.59" traveltime="371.00">
        <ride waitingTime="77.00" vehicle="t_7" depart="6081.00" arrival="6452.00" arrivalPos="54.47" duration="371.00" routeLength="4901.22" timeLoss="46.59"/>
    </personinfo>
    <personinfo id="35" depart="6251.00" type="DEFAULT_PEDTYPE" speedFactor="1.13" duration="549.00" waitingTime="102.00" timeLoss="139.29" traveltime="447.00">
        <ride waitingTime="102.00" vehicle="t_9" depart="6353.00" arrival="6800.00" arrivalPos="56.46" duration="447.00" routeLength="5058.37" timeLoss="139.29"/>
    </personinfo>
    <personinfo id="30" depart="5721.00" type="DEFAULT_PEDTYPE" speedFactor="1.01" duration="1236.00" waitingTime="742.00" timeLoss="107.82" traveltime="494.00">
        <ride waitingTime="742.00" vehicle="t_6" depart="6463.00" arrival="6957.00" arrivalPos="82.04" duration="494.00" routeLength="6545.60" timeLoss="107.82"/>
    </personinfo>
    <personinfo id="36" depart="6797.00" type="DEFAULT_PEDTYPE" speedFactor="0.94" duration="458.00" waitingTime="39.00" timeLoss="92.87" traveltime="419.00">
        <ride waitingTime="39.00" vehicle="t_12" depart="6836.00" arrival="7255.00" arrivalPos="184.40" duration="419.00" routeLength="5479.21" timeLoss="92.87"/>
    </personinfo>
    <personinfo id="37" depart="6814.00" type="DEFAULT_PEDTYPE" speedFactor="1.05" duration="460.00" waitingTime="30.00" timeLoss="95.93" traveltime="430.00">
        <ride waitingTime="30.00" vehicle="t_13" depart="6844.00" arrival="7274.00" arrivalPos="47.96" duration="430.00" routeLength="5650.36" timeLoss="95.93"/>
    </personinfo>
    <personinfo id="38" depart="7270.00" type="DEFAULT_PEDTYPE" speedFactor="0.93" duration="505.00" waitingTime="82.00" timeLoss="47.30" traveltime="423.00">
        <ride waitingTime="82.00" vehicle="t_7" depart="7352.00" arrival="7775.00" arrivalPos="690.16" duration="423.00" routeLength="4609.67" timeLoss="47.30"/>
    </personinfo>
    <personinfo id="39" depart="7349.00" type="DEFAULT_PEDTYPE" speedFactor="0.94" duration="496.00" waitingTime="54.00" timeLoss="107.25" traveltime="442.00">
        <ride waitingTime="54.00" vehicle="t_6" depart="7403.00" arrival="7845.00" arrivalPos="24.12" duration="442.00" routeLength="5370.35" timeLoss="107.25"/>
    </personinfo>
    <personinfo id="40" depart="7880.00" type="DEFAULT_PEDTYPE" speedFactor="1.01" duration="521.00" waitingTime="86.00" timeLoss="110.76" traveltime="435.00">
        <ride waitingTime="86.00" vehicle="t_0" depart="7966.00" arrival="8401.00" arrivalPos="114.31" duration="435.00" routeLength="5316.90" timeLoss="110.76"/>
    </personinfo>
    <personinfo id="41" depart="7996.00" type="DEFAULT_PEDTYPE" speedFactor="1.21" duration="515.00" waitingTime="138.00" timeLoss="68.00" traveltime="377.00">
        <ride waitingTime="138.00" vehicle="t_1" depart="8134.00" arrival="8511.00" arrivalPos="100.26" duration="377.00" routeLength="5579.12" timeLoss="68.00"/>
    </personinfo>
    <personinfo id="42" depart="8176.00" type="DEFAULT_PEDTYPE" speedFactor="1.14" duration="524.00" waitingTime="118.00" timeLoss="85.93" traveltime="406.00">
        <ride waitingTime="118.00" vehicle="t_5" depart="8294.00" arrival="8700.00" arrivalPos="199.40" duration="406.00" routeLength="5249.77" timeLoss="85.93"/>
    </personinfo>
    <personinfo id="43" depart="8196.00" type="DEFAULT_PEDTYPE" speedFactor="1.13" duration="541.00" waitingTime="143.00" timeLoss="107.41" traveltime="398.00">
        <ride waitingTime="143.00" vehicle="t_12" depart="8339.00" arrival="8737.00" arrivalPos="77.59" duration="398.00" routeLength="5245.59" timeLoss="107.41"/>
    </personinfo>
    <personinfo id="44" depart="8243.00" type="DEFAULT_PEDTYPE" speedFactor="1.08" duration="520.00" waitingTime="77.00" timeLoss="84.11" traveltime="443.00">
        <ride waitingTime="77.00" vehicle="t_4" depart="8320.00" arrival="8763.00" arrivalPos="23.00" duration="443.00" routeLength="5815.58" timeLoss="84.11"/>
    </personinfo>
    <personinfo id="45" depart="8546.00" type="DEFAULT_PEDTYPE" speedFactor="0.79" duration="438.00" waitingTime="48.00" timeLoss="81.58" traveltime="390.00">
        <ride waitingTime="48.00" vehicle="t_14" depart="8594.00" arrival="8984.00" arrivalPos="28.72" duration="390.00" routeLength="4679.26" timeLoss="81.58"/>
    </personinfo>
    <personinfo id="46" depart="8627.00" type="DEFAULT_PEDTYPE" speedFactor="1.05" duration="476.00" waitingTime="138.00" timeLoss="78.03" traveltime="338.00">
        <ride waitingTime="138.00" vehicle="t_9" depart="8765.00" arrival="9103.00" arrivalPos="72.80" duration="338.00" routeLength="4735.91" timeLoss="78.03"/>
    </personinfo>
    <personinfo id="47" depart="9114.00" type="DEFAULT_PEDTYPE" speedFactor="1.10" duration="475.00" waitingTime="110.00" timeLoss="40.93" traveltime="365.00">
        <ride waitingTime="110.00" vehicle="t_9" depart="9224.00" arrival="9589.00" arrivalPos="122.59" duration="365.00" routeLength="5348.89" timeLoss="40.93"/>
    </personinfo>
    <personinfo id="48" depart="9119.00" type="DEFAULT_PEDTYPE" speedFactor="1.07" duration="551.00" waitingTime="146.00" timeLoss="68.94" traveltime="405.00">
        <ride waitingTime="146.00" vehicle="t_3" depart="9265.00" arrival="9670.00" arrivalPos="43.01" duration="405.00" routeLength="5822.25" timeLoss="68.94"/>
    </personinfo>
    <personinfo id="49" depart="9911.00" type="DEFAULT_PEDTYPE" speedFactor="1.04" duration="544.00" waitingTime="148.00" timeLoss="79.04" traveltime="396.00">
        <ride waitingTime="148.00" vehicle="t_0" depart="10059.00" arrival="10455.00" arrivalPos="23.55" duration="396.00" routeLength="5473.33" timeLoss="79.04"/>
    </personinfo>
    <personinfo id="51" depart="11006.00" type="DEFAULT_PEDTYPE" speedFactor="0.94" duration="552.00" waitingTime="105.00" timeLoss="102.57" traveltime="447.00">
        <ride waitingTime="105.00" vehicle="t_9" depart="11111.00" arrival="11558.00" arrivalPos="48.64" duration="447.00" routeLength="6207.86" timeLoss="102.57"/>
    </personinfo>
    <personinfo id="50" depart="10916.00" type="DEFAULT_PEDTYPE" speedFactor="0.96" duration="676.00" waitingTime="204.00" timeLoss="112.87" traveltime="472.00">
        <ride waitingTime="204.00" vehicle="t_8" depart="11120.00" arrival="11592.00" arrivalPos="260.29" duration="472.00" routeLength="6217.72" timeLoss="112.87"/>
    </personinfo>
    <personinfo id="52" depart="11429.00" type="DEFAULT_PEDTYPE" speedFactor="1.02" duration="540.00" waitingTime="176.00" timeLoss="81.36" traveltime="364.00">
        <ride waitingTime="176.00" vehicle="t_9" depart="11605.00" arrival="11969.00" arrivalPos="18.86" duration="364.00" routeLength="5184.88" timeLoss="81.36"/>
    </personinfo>
    <personinfo id="53" depart="11583.00" type="DEFAULT_PEDTYPE" speedFactor="0.92" duration="934.00" waitingTime="227.00" timeLoss="127.17" traveltime="707.00">
        <ride waitingTime="227.00" vehicle="t_12" depart="11810.00" arrival="12517.00" arrivalPos="205.64" duration="707.00" routeLength="11098.35" timeLoss="127.17"/>
    </personinfo>
    <personinfo id="54" depart="11771.00" type="DEFAULT_PEDTYPE" speedFactor="0.96" duration="770.00" waitingTime="351.00" timeLoss="64.41" traveltime="419.00">
        <ride waitingTime="351.00" vehicle="t_11" depart="12122.00" arrival="12541.00" arrivalPos="28.70" duration="419.00" routeLength="6210.06" timeLoss="64.41"/>
    </personinfo>
    <personinfo id="56" depart="12030.00" type="DEFAULT_PEDTYPE" speedFactor="1.14" duration="677.00" waitingTime="122.00" timeLoss="63.04" traveltime="555.00">
        <ride waitingTime="122.00" vehicle="t_12" depart="12152.00" arrival="12707.00" arrivalPos="20.12" duration="555.00" routeLength="7141.18" timeLoss="63.04"/>
    </personinfo>
    <personinfo id="57" depart="12126.00" type="DEFAULT_PEDTYPE" speedFactor="0.94" duration="607.00" waitingTime="169.00" timeLoss="98.40" traveltime="438.00">
        <ride waitingTime="169.00" vehicle="t_14" depart="12295.00" arrival="12733.00" arrivalPos="90.43" duration="438.00" routeLength="5810.68" timeLoss="98.40"/>
    </personinfo>
    <personinfo id="55" depart="11924.00" type="DEFAULT_PEDTYPE" speedFactor="1.01" duration="962.00" waitingTime="153.00" timeLoss="98.51" traveltime="809.00">
        <ride waitingTime="153.00" vehicle="t_12" depart="12077.00" arrival="12886.00" arrivalPos="64.07" duration="809.00" routeLength="9234.40" timeLoss="98.51"/>
    </personinfo>
    <personinfo id="58" depart="12471.00" type="DEFAULT_PEDTYPE" speedFactor="1.01" duration="725.00" waitingTime="297.00" timeLoss="105.66" traveltime="428.00">
        <ride waitingTime="297.00" vehicle="t_8" depart="12768.00" arrival="13196.00" arrivalPos="87.89" duration="428.00" routeLength="5327.35" timeLoss="105.66"/>
    </personinfo>
    <personinfo id="59" depart="12627.00" type="DEFAULT_PEDTYPE" speedFactor="1.10" duration="774.00" waitingTime="356.00" timeLoss="76.20" traveltime="418.00">
        <ride waitingTime="356.00" vehicle="t_10" depart="12983.00" arrival="13401.00" arrivalPos="47.02" duration="418.00" routeLength="5880.07" timeLoss="76.20"/>
    </personinfo>
    <personinfo id="60" depart="12728.00" type="DEFAULT_PEDTYPE" speedFactor="1.01" duration="869.00" waitingTime="421.00" timeLoss="101.73" traveltime="448.00">
        <ride waitingTime="421.00" vehicle="t_5" depart="13149.00" arrival="13597.00" arrivalPos="194.06" duration="448.00" routeLength="5621.11" timeLoss="101.73"/>
    </personinfo>
    <personinfo id="61" depart="13040.00" type="DEFAULT_PEDTYPE" speedFactor="1.01" duration="770.00" waitingTime="330.00" timeLoss="64.40" traveltime="440.00">
        <ride waitingTime="330.00" vehicle="t_8" depart="13370.00" arrival="13810.00" arrivalPos="21.22" duration="440.00" routeLength="6362.53" timeLoss="64.40"/>
    </personinfo>
    <personinfo id="63" depart="13360.00" type="DEFAULT_PEDTYPE" speedFactor="0.82" duration="477.00" waitingTime="68.00" timeLoss="87.24" traveltime="409.00">
        <ride waitingTime="68.00" vehicle="t_13" depart="13428.00" arrival="13837.00" arrivalPos="82.04" duration="409.00" routeLength="5353.67" timeLoss="87.24"/>
    </personinfo>
    <personinfo id="62" depart="13157.00" type="DEFAULT_PEDTYPE" speedFactor="1.09" duration="703.00" waitingTime="275.00" timeLoss="78.28" traveltime="428.00">
        <ride waitingTime="275.00" vehicle="t_6" depart="13432.00" arrival="13860.00" arrivalPos="24.01" duration="428.00" routeLength="5631.25" timeLoss="78.28"/>
    </personinfo>
    <personinfo id="64" depart="13553.00" type="DEFAULT_PEDTYPE" speedFactor="1.05" duration="406.00" waitingTime="31.00" timeLoss="70.44" traveltime="375.00">
        <ride waitingTime="31.00" vehicle="t_3" depart="13584.00" arrival="13959.00" arrivalPos="31.59" duration="375.00" routeLength="5204.85" timeLoss="70.44"/>
    </personinfo>
    <personinfo id="66" depart="13812.00" type="DEFAULT_PEDTYPE" speedFactor="0.99" duration="460.00" waitingTime="57.00" timeLoss="101.46" traveltime="403.00">
        <ride waitingTime="57.00" vehicle="t_2" depart="13869.00" arrival="14272.00" arrivalPos="0.20" duration="403.00" routeLength="5164.24" timeLoss="101.46"/>
    </personinfo>
    <personinfo id="67" depart="13824.00" type="DEFAULT_PEDTYPE" speedFactor="0.96" duration="588.00" waitingTime="109.00" timeLoss="96.91" traveltime="479.00">
        <ride waitingTime="109.00" vehicle="t_8" depart="13933.00" arrival="14412.00" arrivalPos="45.44" duration="479.00" routeLength="6325.08" timeLoss="96.91"/>
    </personinfo>
    <personinfo id="65" depart="13731.00" type="DEFAULT_PEDTYPE" speedFactor="0.99" duration="745.00" waitingTime="355.00" timeLoss="57.37" traveltime="390.00">
        <ride waitingTime="355.00" vehicle="t_9" depart="14086.00" arrival="14476.00" arrivalPos="74.44" duration="390.00" routeLength="5921.81" timeLoss="57.37"/>
    </personinfo>
    <personinfo id="68" depart="13998.00" type="DEFAULT_PEDTYPE" speedFactor="1.17" duration="528.00" waitingTime="106.00" timeLoss="96.55" traveltime="422.00">
        <ride waitingTime="106.00" vehicle="t_13" depart="14104.00" arrival="14526.00" arrivalPos="21.89" duration="422.00" routeLength="5677.49" timeLoss="96.55"/>
    </personinfo>
    <personinfo id="69" depart="14038.00" type="DEFAULT_PEDTYPE" speedFactor="0.85" duration="662.00" waitingTime="266.00" timeLoss="61.00" traveltime="396.00">
        <ride waitingTime="266.00" vehicle="t_12" depart="14304.00" arrival="14700.00" arrivalPos="217.94" duration="396.00" routeLength="6040.04" timeLoss="61.00"/>
    </personinfo>
    <personinfo id="70" depart="14157.00" type="DEFAULT_PEDTYPE" speedFactor="1.04" duration="555.00" waitingTime="138.00" timeLoss="65.32" traveltime="417.00">
        <ride waitingTime="138.00" vehicle="t_6" depart="14295.00" arrival="14712.00" arrivalPos="114.31" duration="417.00" routeLength="5174.91" timeLoss="65.32"/>
    </personinfo>
    <personinfo id="71" depart="14617.00" type="DEFAULT_PEDTYPE" speedFactor="1.17" duration="482.00" waitingTime="106.00" timeLoss="89.18" traveltime="376.00">
        <ride waitingTime="106.00" vehicle="t_9" depart="14723.00" arrival="15099.00" arrivalPos="60.44" duration="376.00" routeLength="4934.04" timeLoss="89.18"/>
    </personinfo>
    <personinfo id="72" depart="14788.00" type="DEFAULT_PEDTYPE" speedFactor="0.97" duration="579.00" waitingTime="65.00" timeLoss="152.68" traveltime="514.00">
        <ride waitingTime="65.00" vehicle="t_13" depart="14853.00" arrival="15367.00" arrivalPos="58.90" duration="514.00" routeLength="5902.87" timeLoss="152.68"/>
    </personinfo>
    <personinfo id="73" depart="15080.00" type="DEFAULT_PEDTYPE" speedFactor="1.02" duration="610.00" waitingTime="211.00" timeLoss="113.69" traveltime="399.00">
        <ride waitingTime="211.00" vehicle="t_2" depart="15291.00" arrival="15690.00" arrivalPos="22.40" duration="399.00" routeLength="5065.36" timeLoss="113.69"/>
    </personinfo>
    <personinfo id="74" depart="15219.00" type="DEFAULT_PEDTYPE" speedFactor="1.03" duration="753.00" waitingTime="308.00" timeLoss="91.16" traveltime="445.00">
        <ride waitingTime="308.00" vehicle="t_0" depart="15527.00" arrival="15972.00" arrivalPos="18.94" duration="445.00" routeLength="5515.32" timeLoss="91.16"/>
    </personinfo>
    <personinfo id="75" depart="15749.00" type="DEFAULT_PEDTYPE" speedFactor="0.99" duration="483.00" waitingTime="64.00" timeLoss="86.55" traveltime="419.00">
        <ride waitingTime="64.00" vehicle="t_8" depart="15813.00" arrival="16232.00" arrivalPos="43.39" duration="419.00" routeLength="5024.03" timeLoss="86.55"/>
    </personinfo>
    <personinfo id="76" depart="15762.00" type="DEFAULT_PEDTYPE" speedFactor="1.06" duration="551.00" waitingTime="80.00" timeLoss="151.45" traveltime="471.00">
        <ride waitingTime="80.00" vehicle="t_12" depart="15842.00" arrival="16313.00" arrivalPos="58.90" duration="471.00" routeLength="5874.38" timeLoss="151.45"/>
    </personinfo>
    <personinfo id="77" depart="15908.00" type="DEFAULT_PEDTYPE" speedFactor="0.96" duration="602.00" waitingTime="42.00" timeLoss="172.05" traveltime="560.00">
        <ride waitingTime="42.00" vehicle="t_4" depart="15950.00" arrival="16510.00" arrivalPos="64.07" duration="560.00" routeLength="6326.69" timeLoss="172.05"/>
    </personinfo>
    <personinfo id="78" depart="16762.00" type="DEFAULT_PEDTYPE" speedFactor="1.04" duration="467.00" waitingTime="36.00" timeLoss="124.23" traveltime="431.00">
        <ride waitingTime="36.00" vehicle="t_0" depart="16798.00" arrival="17229.00" arrivalPos="77.52" duration="431.00" routeLength="5523.37" timeLoss="124.23"/>
    </personinfo>
    <personinfo id="79" depart="17109.00" type="DEFAULT_PEDTYPE" speedFactor="1.17" duration="671.00" waitingTime="222.00" timeLoss="80.99" traveltime="449.00">
        <ride waitingTime="222.00" vehicle="t_9" depart="17331.00" arrival="17780.00" arrivalPos="106.24" duration="449.00" routeLength="5972.71" timeLoss="80.99"/>
    </personinfo>
    <personinfo id="81" depart="17434.00" type="DEFAULT_PEDTYPE" speedFactor="0.99" duration="519.00" waitingTime="131.00" timeLoss="53.88" traveltime="388.00">
        <ride waitingTime="131.00" vehicle="t_13" depart="17565.00" arrival="17953.00" arrivalPos="476.74" duration="388.00" routeLength="5463.62" timeLoss="53.88"/>
    </personinfo>
    <personinfo id="80" depart="17406.00" type="DEFAULT_PEDTYPE" speedFactor="1.03" duration="619.00" waitingTime="155.00" timeLoss="92.07" traveltime="464.00">
        <ride waitingTime="155.00" vehicle="t_6" depart="17561.00" arrival="18025.00" arrivalPos="23.00" duration="464.00" routeLength="6550.39" timeLoss="92.07"/>
    </personinfo>
    <personinfo id="82" depart="17484.00" type="DEFAULT_PEDTYPE" speedFactor="0.95" duration="604.00" waitingTime="219.00" timeLoss="67.24" traveltime="385.00">