<?xml version="1.0" encoding="UTF-8"?>

<!-- generated on 2026-04-19T13:15:19.000716+08:00 by Eclipse SUMO sumo 1.26.0
<sumoConfiguration xmlns:xsi="http://www.w3.org/2001/XMLSchema-instance" xsi:noNamespaceSchemaLocation="http://sumo.dlr.de/xsd/sumoConfiguration.xsd">

    <input>
        <net-file value="D:\FYP\DeepPoolPer_Comparison\SunwaySmallMap\osm.net.xml"/>
        <route-files value="D:\FYP\DeepPoolPer_Comparison\SunwaySmallMap\self_request.rou.xml,D:\FYP\DeepPoolPer_Comparison\SunwaySmallMap\taxi_more.rou.xml"/>
    </input>

    <output>
        <tripinfo-output value="D:\FYP\DeepPoolPer_Comparison\SunwaySmallMap\tripinfos.xml"/>
        <statistic-output value="D:\FYP\DeepPoolPer_Comparison\SunwaySmallMap\stats.xml"/>
    </output>

    <time>
        <step-length value="1.0"/>
    </time>

    <processing>
        <ignore-route-errors value="true"/>
        <tls.actuated.jam-threshold value="30"/>
    </processing>

    <routing>
        <device.rerouting.adaptation-steps value="18"/>
        <device.rerouting.adaptation-interval value="10"/>
    </routing>

    <report>
        <verbose value="true"/>
        <duration-log.statistics value="true"/>
        <no-step-log value="true"/>
    </report>

    <taxi_device>
        <device.taxi.dispatch-algorithm value="traci"/>
        <device.taxi.idle-algorithm value="stop"/>
    </taxi_device>

    <traci_server>
        <remote-port value="56209"/>
    </traci_server>

    <gui_only>
        <gui-settings-file value="D:\FYP\DeepPoolPer_Comparison\SunwaySmallMap\osm.view.xml"/>
    </gui_only>

</sumoConfiguration>
-->

<tripinfos xmlns:xsi="http://www.w3.org/2001/XMLSchema-instance" xsi:noNamespaceSchemaLocation="http://sumo.dlr.de/xsd/tripinfo_file.xsd">
    <personinfo id="0" depart="70.00" type="DEFAULT_PEDTYPE" speedFactor="1.06" duration="617.00" waitingTime="119.00" timeLoss="141.14" traveltime="498.00">
        <ride waitingTime="119.00" vehicle="t_0" depart="189.00" arrival="687.00" arrivalPos="77.65" duration="498.00" routeLength="5748.36" timeLoss="141.14"/>
    </personinfo>
    <personinfo id="1" depart="454.00" type="DEFAULT_PEDTYPE" speedFactor="0.88" duration="279.00" waitingTime="96.00" timeLoss="26.60" traveltime="183.00">
        <ride waitingTime="96.00" vehicle="t_3" depart="550.00" arrival="733.00" arrivalPos="74.37" duration="183.00" routeLength="1378.64" timeLoss="26.60"/>
    </personinfo>
    <personinfo id="3" depart="1093.00" type="DEFAULT_PEDTYPE" speedFactor="1.14" duration="410.00" waitingTime="117.00" timeLoss="28.45" traveltime="293.00">
        <ride waitingTime="117.00" vehicle="t_14" depart="1210.00" arrival="1503.00" arrivalPos="125.51" duration="293.00" routeLength="2915.18" timeLoss="28.45"/>
    </personinfo>
    <personinfo id="2" depart="1083.00" type="DEFAULT_PEDTYPE" speedFactor="0.99" duration="552.00" waitingTime="187.00" timeLoss="83.36" traveltime="365.00">
        <ride waitingTime="187.00" vehicle="t_8" depart="1270.00" arrival="1635.00" arrivalPos="77.65" duration="365.00" routeLength="4227.42" timeLoss="83.36"/>
    </personinfo>
    <personinfo id="6" depart="1309.00" type="DEFAULT_PEDTYPE" speedFactor="1.08" duration="332.00" waitingTime="60.00" timeLoss="29.17" traveltime="272.00">
        <ride waitingTime="60.00" vehicle="t_3" depart="1369.00" arrival="1641.00" arrivalPos="117.72" duration="272.00" routeLength="3463.93" timeLoss="29.17"/>
    </personinfo>
    <personinfo id="8" depart="1372.00" type="DEFAULT_PEDTYPE" speedFactor="0.94" duration="321.00" waitingTime="136.00" timeLoss="39.90" traveltime="185.00">
        <ride waitingTime="136.00" vehicle="t_2" depart="1508.00" arrival="1693.00" arrivalPos="66.56" duration="185.00" routeLength="1903.94" timeLoss="39.90"/>
    </personinfo>
    <personinfo id="4" depart="1229.00" type="DEFAULT_PEDTYPE" speedFactor="1.02" duration="498.00" waitingTime="55.00" timeLoss="83.85" traveltime="443.00">
        <ride waitingTime="55.00" vehicle="t_0" depart="1284.00" arrival="1727.00" arrivalPos="105.07" duration="443.00" routeLength="5318.93" timeLoss="83.85"/>
    </personinfo>
    <personinfo id="9" depart="1456.00" type="DEFAULT_PEDTYPE" speedFactor="1.13" duration="271.00" waitingTime="120.00" timeLoss="17.89" traveltime="151.00">
        <ride waitingTime="120.00" vehicle="t_11" depart="1576.00" arrival="1727.00" arrivalPos="27.15" duration="151.00" routeLength="1039.52" timeLoss="17.89"/>
    </personinfo>
    <personinfo id="7" depart="1317.00" type="DEFAULT_PEDTYPE" speedFactor="1.16" duration="500.00" waitingTime="227.00" timeLoss="28.99" traveltime="273.00">
        <ride waitingTime="227.00" vehicle="t_6" depart="1544.00" arrival="1817.00" arrivalPos="139.84" duration="273.00" routeLength="3651.10" timeLoss="28.99"/>
    </personinfo>
    <personinfo id="10" depart="1468.00" type="DEFAULT_PEDTYPE" speedFactor="0.73" duration="432.00" waitingTime="222.00" timeLoss="45.18" traveltime="210.00">
        <ride waitingTime="222.00" vehicle="t_7" depart="1690.00" arrival="1900.00" arrivalPos="13.58" duration="210.00" routeLength="1904.78" timeLoss="45.18"/>
    </personinfo>
    <personinfo id="11" depart="1531.00" type="DEFAULT_PEDTYPE" speedFactor="1.14" duration="438.00" waitingTime="177.00" timeLoss="38.75" traveltime="261.00">
        <ride waitingTime="177.00" vehicle="t_3" depart="1708.00" arrival="1969.00" arrivalPos="11.40" duration="261.00" routeLength="2934.92" timeLoss="38.75"/>
    </personinfo>
    <personinfo id="5" depart="1251.00" type="DEFAULT_PEDTYPE" speedFactor="0.97" duration="820.00" waitingTime="132.00" timeLoss="156.35" traveltime="688.00">
        <ride waitingTime="132.00" vehicle="t_2" depart="1383.00" arrival="2071.00" arrivalPos="105.07" duration="688.00" routeLength="8704.58" timeLoss="156.35"/>
    </personinfo>
    <personinfo id="12" depart="1850.00" type="DEFAULT_PEDTYPE" speedFactor="1.05" duration="443.00" waitingTime="97.00" timeLoss="55.13" traveltime="346.00">
        <ride waitingTime="97.00" vehicle="t_9" depart="1947.00" arrival="2293.00" arrivalPos="757.86" duration="346.00" routeLength="3382.67" timeLoss="55.13"/>
    </personinfo>
    <personinfo id="14" depart="2024.00" type="DEFAULT_PEDTYPE" speedFactor="0.94" duration="369.00" waitingTime="95.00" timeLoss="40.35" traveltime="274.00">
        <ride waitingTime="95.00" vehicle="t_13" depart="2119.00" arrival="2393.00" arrivalPos="77.65" duration="274.00" routeLength="2884.52" timeLoss="40.35"/>
    </personinfo>
    <personinfo id="13" depart="2003.00" type="DEFAULT_PEDTYPE" speedFactor="0.98" duration="625.00" waitingTime="105.00" timeLoss="157.46" traveltime="520.00">
        <ride waitingTime="105.00" vehicle="t_6" depart="2108.00" arrival="2628.00" arrivalPos="127.70" duration="520.00" routeLength="5759.82" timeLoss="157.46"/>
    </personinfo>
    <personinfo id="17" depart="2773.00" type="DEFAULT_PEDTYPE" speedFactor="1.03" duration="301.00" waitingTime="66.00" timeLoss="25.82" traveltime="235.00">
        <ride waitingTime="66.00" vehicle="t_0" depart="2839.00" arrival="3074.00" arrivalPos="38.69" duration="235.00" routeLength="2673.47" timeLoss="25.82"/>
    </personinfo>
    <personinfo id="15" depart="2590.00" type="DEFAULT_PEDTYPE" speedFactor="1.11" duration="574.00" waitingTime="148.00" timeLoss="95.03" traveltime="426.00">
        <ride waitingTime="148.00" vehicle="t_11" depart="2738.00" arrival="3164.00" arrivalPos="86.92" duration="426.00" routeLength="5453.15" timeLoss="95.03"/>
    </personinfo>
    <personinfo id="16" depart="2696.00" type="DEFAULT_PEDTYPE" speedFactor="0.92" duration="589.00" waitingTime="182.00" timeLoss="55.80" traveltime="407.00">
        <ride waitingTime="182.00" vehicle="t_1" depart="2878.00" arrival="3285.00" arrivalPos="105.07" duration="407.00" routeLength="5715.53" timeLoss="55.80"/>
    </personinfo>
    <personinfo id="18" depart="2858.00" type="DEFAULT_PEDTYPE" speedFactor="0.94" duration="502.00" waitingTime="262.00" timeLoss="24.08" traveltime="240.00">
        <ride waitingTime="262.00" vehicle="t_10" depart="3120.00" arrival="3360.00" arrivalPos="68.01" duration="240.00" routeLength="2619.81" timeLoss="24.08"/>
    </personinfo>
    <personinfo id="19" depart="3086.00" type="DEFAULT_PEDTYPE" speedFactor="1.08" duration="394.00" waitingTime="116.00" timeLoss="40.94" traveltime="278.00">
        <ride waitingTime="116.00" vehicle="t_14" depart="3202.00" arrival="3480.00" arrivalPos="139.40" duration="278.00" routeLength="2615.39" timeLoss="40.94"/>
    </personinfo>
    <personinfo id="20" depart="3344.00" type="DEFAULT_PEDTYPE" speedFactor="0.69" duration="149.00" waitingTime="33.00" timeLoss="8.20" traveltime="116.00">
        <ride waitingTime="33.00" vehicle="t_7" depart="3377.00" arrival="3493.00" arrivalPos="14.88" duration="116.00" routeLength="905.16" timeLoss="8.20"/>
    </personinfo>
    <personinfo id="23" depart="3567.00" type="DEFAULT_PEDTYPE" speedFactor="1.02" duration="261.00" waitingTime="60.00" timeLoss="40.36" traveltime="201.00">
        <ride waitingTime="60.00" vehicle="t_8" depart="3627.00" arrival="3828.00" arrivalPos="70.28" duration="201.00" routeLength="1734.69" timeLoss="40.36"/>
    </personinfo>
    <personinfo id="22" depart="3529.00" type="DEFAULT_PEDTYPE" speedFactor="1.21" duration="314.00" waitingTime="128.00" timeLoss="19.75" traveltime="186.00">
        <ride waitingTime="128.00" vehicle="t_4" depart="3657.00" arrival="3843.00" arrivalPos="18.57" duration="186.00" routeLength="1971.98" timeLoss="19.75"/>
    </personinfo>
    <personinfo id="21" depart="3358.00" type="DEFAULT_PEDTYPE" speedFactor="0.99" duration="556.00" waitingTime="262.00" timeLoss="45.08" traveltime="294.00">
        <ride waitingTime="262.00" vehicle="t_7" depart="3620.00" arrival="3914.00" arrivalPos="117.72" duration="294.00" routeLength="3463.89" timeLoss="45.08"/>
    </personinfo>
    <personi