<?xml version="1.0" encoding="UTF-8"?>

<!-- generated on 2026-04-19T15:56:19.590068+08:00 by Eclipse SUMO sumo 1.26.0
<sumoConfiguration xmlns:xsi="http://www.w3.org/2001/XMLSchema-instance" xsi:noNamespaceSchemaLocation="http://sumo.dlr.de/xsd/sumoConfiguration.xsd">

    <input>
        <net-file value="D:\FYP\DeepPoolPer_Comparison\SunwaySmallMap\osm.net.xml"/>
        <route-files value="D:\FYP\DeepPoolPer_Comparison\SunwaySmallMap\self_request.rou.xml,D:\FYP\DeepPoolPer_Comparison\SunwaySmallMap\taxi_more.rou.xml"/>
    </input>

    <output>
        <tripinfo-output value="D:\FYP\DeepPoolPer_Comparison\SunwaySmallMap\tripinfos.xml"/>
        <statistic-output value="D:\FYP\DeepPoolPer_Comparison\SunwaySmallMap\stats.xml"/>
    </output>

    <time>
        <step-length value="1.0"/>
    </time>

    <processing>
        <ignore-route-errors value="true"/>
        <tls.actuated.jam-threshold value="30"/>
    </processing>

    <routing>
        <device.rerouting.adaptation-steps value="18"/>
        <device.rerouting.adaptation-interval value="10"/>
    </routing>

    <report>
        <verbose value="true"/>
        <duration-log.statistics value="true"/>
        <no-step-log value="true"/>
    </report>

    <taxi_device>
        <device.taxi.dispatch-algorithm value="traci"/>
        <device.taxi.idle-algorithm value="stop"/>
    </taxi_device>

    <traci_server>
        <remote-port value="62387"/>
    </traci_server>

    <gui_only>
        <gui-settings-file value="D:\FYP\DeepPoolPer_Comparison\SunwaySmallMap\osm.view.xml"/>
    </gui_only>

</sumoConfiguration>
-->

<tripinfos xmlns:xsi="http://www.w3.org/2001/XMLSchema-instance" xsi:noNamespaceSchemaLocation="http://sumo.dlr.de/xsd/tripinfo_file.xsd">
    <personinfo id="0" depart="70.00" type="DEFAULT_PEDTYPE" speedFactor="1.06" duration="614.00" waitingTime="156.00" timeLoss="126.93" traveltime="458.00">
        <ride waitingTime="156.00" vehicle="t_12" depart="226.00" arrival="684.00" arrivalPos="77.65" duration="458.00" routeLength="5748.36" timeLoss="126.93"/>
    </personinfo>
    <personinfo id="1" depart="454.00" type="DEFAULT_PEDTYPE" speedFactor="0.88" duration="278.00" waitingTime="98.00" timeLoss="23.65" traveltime="180.00">
        <ride waitingTime="98.00" vehicle="t_3" depart="552.00" arrival="732.00" arrivalPos="74.37" duration="180.00" routeLength="1378.58" timeLoss="23.65"/>
    </personinfo>
    <personinfo id="3" depart="1093.00" type="DEFAULT_PEDTYPE" speedFactor="1.14" duration="380.00" waitingTime="89.00" timeLoss="32.24" traveltime="291.00">
        <ride waitingTime="89.00" vehicle="t_13" depart="1182.00" arrival="1473.00" arrivalPos="125.51" duration="291.00" routeLength="2915.22" timeLoss="32.24"/>
    </personinfo>
    <personinfo id="2" depart="1083.00" type="DEFAULT_PEDTYPE" speedFactor="0.99" duration="515.00" waitingTime="142.00" timeLoss="93.57" traveltime="373.00">
        <ride waitingTime="142.00" vehicle="t_6" depart="1225.00" arrival="1598.00" arrivalPos="77.65" duration="373.00" routeLength="4227.43" timeLoss="93.57"/>
    </personinfo>
    <personinfo id="6" depart="1309.00" type="DEFAULT_PEDTYPE" speedFactor="1.08" duration="335.00" waitingTime="65.00" timeLoss="18.55" traveltime="270.00">
        <ride waitingTime="65.00" vehicle="t_14" depart="1374.00" arrival="1644.00" arrivalPos="117.72" duration="270.00" routeLength="3463.95" timeLoss="18.55"/>
    </personinfo>
    <personinfo id="9" depart="1456.00" type="DEFAULT_PEDTYPE" speedFactor="1.14" duration="241.00" waitingTime="85.00" timeLoss="17.53" traveltime="156.00">
        <ride waitingTime="85.00" vehicle="t_7" depart="1541.00" arrival="1697.00" arrivalPos="27.15" duration="156.00" routeLength="1039.51" timeLoss="17.53"/>
    </personinfo>
    <personinfo id="4" depart="1229.00" type="DEFAULT_PEDTYPE" speedFactor="1.02" duration="489.00" waitingTime="52.00" timeLoss="101.91" traveltime="437.00">
        <ride waitingTime="52.00" vehicle="t_12" depart="1281.00" arrival="1718.00" arrivalPos="105.07" duration="437.00" routeLength="5318.94" timeLoss="101.91"/>
    </personinfo>
    <personinfo id="8" depart="1372.00" type="DEFAULT_PEDTYPE" speedFactor="0.73" duration="356.00" waitingTime="192.00" timeLoss="16.45" traveltime="164.00">
        <ride waitingTime="192.00" vehicle="t_10" depart="1564.00" arrival="1728.00" arrivalPos="66.56" duration="164.00" routeLength="1903.89" timeLoss="16.45"/>
    </personinfo>
    <personinfo id="10" depart="1468.00" type="DEFAULT_PEDTYPE" speedFactor="0.89" duration="268.00" waitingTime="44.00" timeLoss="65.63" traveltime="224.00">
        <ride waitingTime="44.00" vehicle="t_9" depart="1512.00" arrival="1736.00" arrivalPos="13.58" duration="224.00" routeLength="1904.86" timeLoss="65.63"/>
    </personinfo>
    <personinfo id="5" depart="1251.00" type="DEFAULT_PEDTYPE" speedFactor="0.97" duration="531.00" waitingTime="159.00" timeLoss="48.90" traveltime="372.00">
        <ride waitingTime="159.00" vehicle="t_11" depart="1410.00" arrival="1782.00" arrivalPos="105.07" duration="372.00" routeLength="5349.76" timeLoss="48.90"/>
    </personinfo>
    <personinfo id="7" depart="1317.00" type="DEFAULT_PEDTYPE" speedFactor="1.13" duration="611.00" waitingTime="89.00" timeLoss="85.61" traveltime="522.00">
        <ride waitingTime="89.00" vehicle="t_7" depart="1406.00" arrival="1928.00" arrivalPos="139.84" duration="522.00" routeLength="5401.93" timeLoss="85.61"/>
    </personinfo>
    <personinfo id="11" depart="1531.00" type="DEFAULT_PEDTYPE" speedFactor="1.00" duration="659.00" waitingTime="380.00" timeLoss="39.51" traveltime="279.00">
        <ride waitingTime="380.00" vehicle="t_4" depart="1911.00" arrival="2190.00" arrivalPos="11.40" duration="279.00" routeLength="2934.96" timeLoss="39.51"/>
    </personinfo>
    <personinfo id="12" depart="1850.00" type="DEFAULT_PEDTYPE" speedFactor="0.90" duration="439.00" waitingTime="66.00" timeLoss="85.26" traveltime="373.00">
        <ride waitingTime="66.00" vehicle="t_12" depart="1916.00" arrival="2289.00" arrivalPos="757.86" duration="373.00" routeLength="3382.69" timeLoss="85.26"/>
    </personinfo>
    <personinfo id="14" depart="2024.00" type="DEFAULT_PEDTYPE" speedFactor="1.11" duration="332.00" waitingTime="56.00" timeLoss="46.84" traveltime="276.00">
        <ride waitingTime="56.00" vehicle="t_3" depart="2080.00" arrival="2356.00" arrivalPos="77.65" duration="276.00" routeLength="2884.53" timeLoss="46.84"/>
    </personinfo>
    <personinfo id="13" depart="2003.00" type="DEFAULT_PEDTYPE" speedFactor="1.12" duration="575.00" waitingTime="90.00" timeLoss="128.45" traveltime="485.00">
        <ride waitingTime="90.00" vehicle="t_14" depart="2093.00" arrival="2578.00" arrivalPos="127.70" duration="485.00" routeLength="5759.86" timeLoss="128.45"/>
    </personinfo>
    <personinfo id="15" depart="2590.00" type="DEFAULT_PEDTYPE" speedFactor="1.00" duration="518.00" waitingTime="88.00" timeLoss="97.69" traveltime="430.00">
        <ride waitingTime="88.00" vehicle="t_10" depart="2678.00" arrival="3108.00" arrivalPos="86.92" duration="430.00" routeLength="5453.16" timeLoss="97.69"/>
    </personinfo>
    <personinfo id="17" depart="2773.00" type="DEFAULT_PEDTYPE" speedFactor="1.12" duration="348.00" waitingTime="124.00" timeLoss="25.42" traveltime="224.00">
        <ride waitingTime="124.00" vehicle="t_9" depart="2897.00" arrival="3121.00" arrivalPos="38.69" duration="224.00" routeLength="2673.42" timeLoss="25.42"/>
    </personinfo>
    <personinfo id="18" depart="2858.00" type="DEFAULT_PEDTYPE" speedFactor="1.07" duration="397.00" waitingTime="105.00" timeLoss="67.59" traveltime="292.00">
        <ride waitingTime="105.00" vehicle="t_7" depart="2963.00" arrival="3255.00" arrivalPos="68.01" duration="292.00" routeLength="2619.82" timeLoss="67.59"/>
    </personinfo>
    <personinfo id="16" depart="2696.00" type="DEFAULT_PEDTYPE" speedFactor="0.88" duration="589.00" waitingTime="182.00" timeLoss="56.04" traveltime="407.00">
        <ride waitingTime="182.00" vehicle="t_1" depart="2878.00" arrival="3285.00" arrivalPos="105.07" duration="407.00" routeLength="5715.55" timeLoss="56.04"/>
    </personinfo>
    <personinfo id="20" depart="3344.00" type="DEFAULT_PEDTYPE" speedFactor="1.17" duration="259.00" waitingTime="142.00" timeLoss="9.69" traveltime="117.00">
        <ride waitingTime="142.00" vehicle="t_10" depart="3486.00" arrival="3603.00" arrivalPos="14.88" duration="117.00" routeLength="905.10" timeLoss="9.69"/>
    </personinfo>
    <personinfo id="19" depart="3086.00" type="DEFAULT_PEDTYPE" speedFactor="0.91" duration="519.00" waitingTime="233.00" timeLoss="38.98" traveltime="286.00">
        <ride waitingTime="233.00" vehicle="t_4" depart="3319.00" arrival="3605.00" arrivalPos="139.40" duration="286.00" routeLength="2615.39" timeLoss="38.98"/>
    </personinfo>
    <personinfo id="21" depart="3358.00" type="DEFAULT_PEDTYPE" speedFactor="1.07" duration="446.00" waitingTime="149.00" timeLoss="41.77" traveltime="297.00">
        <ride waitingTime="149.00" vehicle="t_6" depart="3507.00" arrival="3804.00" arrivalPos="117.72" duration="297.00" routeLength="3463.88" timeLoss="41.77"/>
    </personinfo>
    <personinfo id="22" depart="3529.00" type="DEFAULT_PEDTYPE" speedFactor="0.86" duration="302.00" waitingTime="115.00" timeLoss="32.04" traveltime="187.00">
        <ride waitingTime="115.00" vehicle="t_2" depart="3644.00" arrival="3831.00" arrivalPos="18.57" duration="187.00" routeLength="1971.99" timeLoss="32.04"/>
    </personinfo>
    <personinfo id="23" depart="3567.00" type="DEFAULT_PEDTYPE" speedFactor="0.86" duration="385.00" waitingTime="212.00" timeLoss="21.46" traveltime="173.00">
        <ride waitingTime="212.00" vehicle="t_11" depart="3779.00" arrival="3952.00" arrivalPos="70.28" duration="173.00" routeLength="1734.61" timeLoss="21.46"/>
    </personinfo>
    <personinfo id="24" depart="4113.00" type="DEFAULT_PEDTYPE" speedFactor="1.05" duration="227.00" waitingTime="93.00" timeLoss="8.97" traveltime="134.00">
        <ride waitingTime="93.00" vehicle="t_6" depart="4206.00" arrival="4340.00" arrivalPos="23.96" duration="134.00" routeLength="761.71" timeLoss="8.97"/>
    </personinfo>
    <personinfo id="25" depart="4762.00" type="DEFAULT_PEDTYPE" speedFactor="1.00" duration="543.00" waitingTime="159.00" timeLoss="93.28" traveltime="384.00">
        <ride waitingTime="159.00" vehicle="t_0" depart="4921.00" arrival="5305.00" arrivalPos="52.47" duration="384.00" routeLength="4909.24" timeLoss="93.28"/>
    </personinfo>
    <personinfo id="27" depart="5355.00" type="DEFAULT_PEDTYPE" speedFactor="0.93" duration="331.00" waitingTime="72.00" timeLoss="34.05" traveltime="259.00">
        <ride waitingTime="72.00" vehicle="t_12" depart="5427.00" arrival="5686.00" arrivalPos="45.85" duration="259.00" routeLength="3249.41" timeLoss="34.05"/>
    </personinfo>
    <personinfo id="26" depart="5290.00" type="DEFAULT_PEDTYPE" speedFactor="0.97" duration="401.00" waitingTime="193.00" timeLoss="31.18" traveltime="208.00">
        <ride waitingTime="193.00" vehicle="t_10" depart="5483.00" arrival="5691.00" arrivalPos="117.72" duration="208.00" routeLength="1767.08" timeLoss="31.18"/>
    </personinfo>
    <personinfo id="28" depart="5371.00" type="DEFAULT_PEDTYPE" speedFactor="0.94" duration="477.00" waitingTime="202.00" timeLoss="25.98" traveltime="275.00">
        <ride waitingTime="202.00" vehicle="t_14" depart="5573.00" arrival="5848.00" arrivalPos="3.04" duration="275.00" routeLength="2563.20" timeLoss="25.98"/>
    </personinfo>
    <personinfo id="29" depart="5737.00" type="DEFAULT_PEDTYPE" speedFactor="0.98" duration="490.00" waitingTime="72.00" timeLoss="155.32" traveltime="418.00">
        <ride waitingTime="72.00" vehicle="t_10" depart="5809.00" arrival="6227.00" arrivalPos="117.15" duration="418.00" routeLength="4982.07" timeLoss="155.32"/>
    </personinfo>
    <personinfo id="32" depart="6017.00" type="DEFAULT_PEDTYPE" speedFactor="1.08" duration="230.00" waitingTime="31.00" timeLoss="36.90" traveltime="199.00">
        <ride waitingTime="31.00" vehicle="t_1" depart="6048.00" arrival="6247.00" arrivalPos="85.99" duration="199.00" routeLength="1666.39" timeLoss="36.90"/>
    </personinfo>
    <personinfo id="30" depart="5783.00" type="DEFAULT_PEDTYPE" speedFactor="1.13" duration="608.00" waitingTime="168.00" timeLoss="73.37" traveltime="440.00">
        <ride waitingTime="168.00" vehicle="t_6" depart="5951.00" arrival="6391.00" arrivalPos="892.96" duration="440.00" routeLength="4334.18" timeLoss="73.37"/>
    </personinfo>
    <personinfo id="31" depart="6004.00" type="DEFAULT_PEDTYPE" speedFactor="0.99" duration="531.00" waitingTime="139.00" timeLoss="86.63" traveltime="392.00">
        <ride waitingTime="139.00" vehicle="t_0" depart="6143.00" arrival="6535.00" arrivalPos="26.00" duration="392.00" routeLength="4658.72" timeLoss="86.63"/>
    </personinfo>
    <personinfo id="33" depart="6340.00" type="DEFAULT_PEDTYPE" speedFactor="1.01" duration="335.00" waitingTime="64.00" timeLoss="67.58" traveltime="271.00">
        <ride waitingTime="64.00" vehicle="t_5" depart="6404.00" arrival="6675.00" arrivalPos="53.15" duration="271.00" routeLength="2120.85" timeLoss="67.58"/>
    </personinfo>
    <personinfo id="34" depart="7653.00" type="DEFAULT_PEDTYPE" speedFactor="0.99" duration="356.00" waitingTime="170.00" timeLoss="29.81" traveltime="186.00">
        <ride waitingTime="170.00" vehicle="t_1" depart="7823.00" arrival="8009.00" arrivalPos="18.89" duration="186.00" routeLength="1907.06" timeLoss="29.81"/>
    </personinfo>
    <personinfo id="35" depart="7996.00" type="DEFAULT_PEDTYPE" speedFactor="1.05" duration="490.00" waitingTime="40.00" timeLoss="70.47" traveltime="450.00">
        <ride waitingTime="40.00" vehicle="t_7" depart="8036.00" arrival="8486.00" arrivalPos="52.47" duration="450.00" routeLength="6223.26" timeLoss="70.47"/>
    </personinfo>
    <personinfo id="36" depart="8186.00" type="DEFAULT_PEDTYPE" speedFactor="1.05" duration="439.00" waitingTime="192.00" timeLoss="19.48" traveltime="247.00">
        <ride waitingTime="192.00" vehicle="t_5" depart="8378.00" arrival="8625.00" arrivalPos="88.03" duration="247.00" routeLength="3524.48" timeLoss="19.48"/>
    </personinfo>
    <personinfo id="37" depart="8618.00" type="DEFAULT_PEDTYPE" speedFactor="1.02" duration="421.00" waitingTime="116.00" timeLoss="36.39" traveltime="305.00">
        <ride waitingTime="116.00" vehicle="t_14" depart="8734.00" arrival="9039.00" arrivalPos="22.37" duration="305.00" routeLength="3724.46" timeLoss="36.39"/>
    </personinfo>
    <personinfo id="38" depart="8627.00" type="DEFAULT_PEDTYPE" speedFactor="0.90" duration="423.00" waitingTime="94.00" timeLoss="60.94" traveltime="329.00">
        <ride waitingTime="94.00" vehicle="t_2" depart="8721.00" arrival="9050.00" arrivalPos="29.51" duration="329.00" routeLength="4222.94" timeLoss="60.94"/>
    </personinfo>
    <personinfo id="39" depart="8779.00" type="DEFAULT_PEDTYPE" speedFactor="1.02" duration="311.00" waitingTime="142.00" timeLoss="26.58" traveltime="169.00">
        <ride waitingTime="142.00" vehicle="t_5" depart="8921.00" arrival="9090.00" arrivalPos="14.88" duration="169.00" routeLength="1384.45" timeLoss="26.58"/>
    </personinfo>
    <personinfo id="42" depart="9140.00" type="DEFAULT_PEDTYPE" speedFactor="0.93" duration="231.00" waitingTime="124.00" timeLoss="6.64" traveltime="107.00">
        <ride waitingTime="124.00" vehicle="t_13" depart="9264.00" arrival="9371.00" arrivalPos="15.91" duration="107.00" routeLength="470.59" timeLoss="6.64"/>
    </personinfo>
    <personinfo id="41" depart="9137.00" type="DEFAULT_PEDTYPE" speedFactor="0.73" duration="342.00" waitingTime="136.00" timeLoss="13.75" traveltime="206.00">
        <ride waitingTime="136.00" vehicle="t_4" depart="9273.00" arrival="9479.00" arrivalPos="37.52" duration="206.00" routeLength="2145.85" timeLoss="13.75"/>
    </personinfo>
    <personinfo id="40" depart="9055.00" type="DEFAULT_PEDTYPE" speedFactor="0.90" duration="507.00" waitingTime="135.00" timeLoss="89.43" traveltime="372.00">
        <ride waitingTime="135.00" vehicle="t_1" depart="9190.00" arrival="9562.00" arrivalPos="41.64" duration="372.00" routeLength="5462.62" timeLoss="89.43"/>
    </personinfo>
    <personinfo id="43" depart="9572.00" type="DEFAULT_PEDTYPE" speedFactor="1.03" duration="288.00" waitingTime="28.00" timeLoss="29.26" traveltime="260.00">
        <ride waitingTime="28.00" vehicle="t_13" depart="9600.00" arrival="9860.00" arrivalPos="32.30" duration="260.00" routeLength="2966.29" timeLoss="29.26"/>
    </personinfo>
    <personinfo id="44" depart="9690.00" type="DEFAULT_PEDTYPE" speedFactor="0.94" duration="424.00" waitingTime="83.00" timeLoss="82.32" traveltime="341.00">
        <ride waitingTime="83.00" vehicle="t_0" depart="9773.00" arrival="10114.00" arrivalPos="26.51" duration="341.00" routeLength="3587.51" timeLoss="82.32"/>
    </personinfo>
    <personinfo id="45" depart="10210.00" type="DEFAULT_PEDTYPE" speedFactor="1.02" duration="386.00" waitingTime="176.00" timeLoss="52.26" traveltime="210.00">
        <ride waitingTime="176.00" vehicle="t_8" depart="10386.00" arrival="10596.00" arrivalPos="13.58" duration="210.00" routeLength="2011.53" timeLoss="52.26"/>
    </personinfo>
    <personinfo id="46" depart="10554.00" type="DEFAULT_PEDTYPE" speedFactor="1.11" duration="465.00" waitingTime="153.00" timeLoss="70.73" traveltime="312.00">
        <ride waitingTime="153.00" vehicle="t_2" depart="10707.00" arrival="11019.00" arrivalPos="0.47" duration="312.00" routeLength="3771.83" timeLoss="70.73"/>
    </personinfo>
    <personinfo id="47" depart="11006.00" type="DEFAULT_PEDTYPE" speedFactor="1.06" duration="270.00" waitingTime="28.00" timeLoss="40.91" traveltime="242.00">
        <ride waitingTime="28.00" vehicle="t_13" depart="11034.00" arrival="11276.00" arrivalPos="339.41" duration="242.00" routeLength="2015.94" timeLoss="40.91"/>
    </personinfo>
    <personinfo id="48" depart="11292.00" type="DEFAULT_PEDTYPE" speedFactor="1.13" duration="416.00" waitingTime="97.00" timeLoss="59.64" traveltime="319.00">
        <ride waitingTime="97.00" vehicle="t_14" depart="11389.00" arrival="11708.00" arrivalPos="273.01" duration="319.00" routeLength="3103.00" timeLoss="59.64"/>
    </personinfo>
    <personinfo id="49" depart="11924.00" type="DEFAULT_PEDTYPE" speedFactor="1.15" duration="619.00" waitingTime="176.00" timeLoss="112.27" traveltime="443.00">
        <ride waitingTime="176.00" vehicle="t_8" depart="12100.00" arrival="12543.00" arrivalPos="127.70" duration="443.00" routeLength="5421.70" timeLoss="112.27"/>
    </personinfo>
    <personinfo id="51" depart="12505.00" type="DEFAULT_PEDTYPE" speedFactor="1.00" duration="317.00" waitingTime="51.00" timeLoss="22.38" traveltime="266.00">
        <ride waitingTime="51.00" vehicle="t_0" depart="12556.00" arrival="12822.00" arrivalPos="240.81" duration="266.00" routeLength="3149.29" timeLoss="22.38"/>
    </personinfo>
    <personinfo id="50" depart="12471.00" type="DEFAULT_PEDTYPE" speedFactor="0.98" duration="470.00" waitingTime="113.00" timeLoss="50.39" traveltime="357.00">
        <ride waitingTime="113.00" vehicle="t_13" depart="12584.00" arrival="12941.00" arrivalPos="38.27" duration="357.00" routeLength="4954.97" timeLoss="50.39"/>
    </personinfo>
    <personinfo id="52" depart="12710.00" type="DEFAULT_PEDTYPE" speedFactor="0.98" duration="410.00" waitingTime="174.00" timeLoss="25.20" traveltime="236.00">
        <ride waitingTime="174.00" vehicle="t_2" depart="12884.00" arrival="13120.00" arrivalPos="105.07" duration="236.00" routeLength="2367.21" timeLoss="25.20"/>
    </personinfo>
    <personinfo id="53" depart="12755.00" type="DEFAULT_PEDTYPE" speedFactor="0.97" duration="526.00" waitingTime="191.00" timeLoss="74.47" traveltime="335.00">
        <ride waitingTime="191.00" vehicle="t_5" depart="12946.00" arrival="13281.00" arrivalPos="979.46" duration="335.00" routeLength="3050.81" timeLoss="74.47"/>
    </personinfo>
    <personinfo id="54" depart="13004.00" type="DEFAULT_PEDTYPE" speedFactor="0.81" duration="294.00" waitingTime="119.00" timeLoss="10.75" traveltime="175.00">
        <ride waitingTime="119.00" vehicle="t_9" depart="13123.00" arrival="13298.00" arrivalPos="75.73" duration="175.00" routeLength="1621.75" timeLoss="10.75"/>
    </personinfo>
    <personinfo id="55" depart="13154.00" type="DEFAULT_PEDTYPE" speedFactor="1.00" duration="495.00" waitingTime="184.00" timeLoss="56.07" traveltime="311.00">
        <ride waitingTime="184.00" vehicle="t_0" depart="13338.00" arrival="13649.00" arrivalPos="56.18" duration="311.00" routeLength="4211.31" timeLoss="56.07"/>
    </personinfo>
    <personinfo id="57" depart="13812.00" type="DEFAULT_PEDTYPE" speedFactor="1.02" duration="407.00" waitingTime="110.00" timeLoss="73.30" traveltime="297.00">
        <ride waitingTime="110.00" vehicle="t_5" depart="13922.00" arrival="14219.00" arrivalPos="11.40" duration="297.00" routeLength="3058.79" timeLoss="73.30"/>
    </personinfo>
    <personinfo id="56" depart="13716.00" type="DEFAULT_PEDTYPE" speedFactor="1.14" duration="690.00" waitingTime="254.00" timeLoss="93.18" traveltime="436.00">
        <ride waitingTime="254.00" vehicle="t_13" depart="13970.00" arrival="14406.00" arrivalPos="86.92" duration="436.00" routeLength="5448.06" timeLoss="93.18"/>
    </personinfo>
    <personinfo id="58" depart="14157.00" type="DEFAULT_PEDTYPE" speedFactor="0.92" duration="462.00" waitingTime="102.00" timeLoss="59.24" traveltime="360.00">
        <ride waitingTime="102.00" vehicle="t_14" depart="14259.00" arrival="14619.00" arrivalPos="53.15" duration="360.00" routeLength="3916.98" timeLoss="59.24"/>
    </personinfo>
    <personinfo id="59" depart="14283.00" type="DEFAULT_PEDTYPE" speedFactor="0.95" duration="397.00" waitingTime="199.00" timeLoss="19.52" traveltime="198.00">
        <ride waitingTime="199.00" vehicle="t_11" depart="14482.00" arrival="14680.00" arrivalPos="105.07" duration="198.00" routeLength="1749.70" timeLoss="19.52"/>
    </personinfo>
    <personinfo id="60" depart="14450.00" type="DEFAULT_PEDTYPE" speedFactor="1.13" duration="269.00" waitingTime="165.00" timeLoss="4.99" traveltime="104.00">
        <ride waitingTime="165.00" vehicle="t_9" depart="14615.00" arrival="14719.00" arrivalPos="15.91" duration="104.00" routeLength="470.54" timeLoss="4.99"/>
    </personinfo>
    <personinfo id="61" depart="14466.00" type="DEFAULT_PEDTYPE" speedFactor="1.04" duration="421.00" waitingTime="94.00" timeLoss="56.96" traveltime="327.00">
        <ride waitingTime="94.00" vehicle="t_13" depart="14560.00" arrival="14887.00" arrivalPos="18.37" duration="327.00" routeLength="4627.81" timeLoss="56.96"/>
    </personinfo>
    <personinfo id="63" depart="14725.00" type="DEFAULT_PEDTYPE" speedFactor="1.11" duration="293.00" waitingTime="125.00" timeLoss="28.62" traveltime="168.00">
        <ride waitingTime="125.00" vehicle="t_3" depart="14850.00" arrival="15018.00" arrivalPos="18.57" duration="168.00" routeLength="1601.05" timeLoss="28.62"/>
    </personinfo>
    <personinfo id="62" depart="14617.00" type="DEFAULT_PEDTYPE" speedFactor="1.11" duration="531.00" waitingTime="240.00" timeLoss="49.54" traveltime="291.00">
        <ride waitingTime="240.00" vehicle="t_5" depart="14857.00" arrival="15148.00" arrivalPos="240.81" duration="291.00" routeLength="2983.48" timeLoss="49.54"/>
    </personinfo>
    <personinfo id="64" depart="14788.00" type="DEFAULT_PEDTYPE" speedFactor="1.10" duration="430.00" waitingTime="191.00" timeLoss="87.53" traveltime="239.00">
        <ride waitingTime="191.00" vehicle="t_9" depart="14979.00" arrival="15218.00" arrivalPos="18.37" duration="239.00" routeLength="1816.48" timeLoss="87.53"/>
    </personinfo>
    <personinfo id="65" depart="15080.00" type="DEFAULT_PEDTYPE" speedFactor="1.03" duration="369.00" waitingTime="140.00" timeLoss="26.71" traveltime="229.00">
        <ride waitingTime="140.00" vehicle="t_7" depart="15220.00" arrival="15449.00" arrivalPos="52.47" duration="229.00" routeLength="2391.98" timeLoss="26.71"/>
    </personinfo>
    <personinfo id="66" depart="15159.00" type="DEFAULT_PEDTYPE" speedFactor="1.14" duration="326.00" waitingTime="91.00" timeLoss="29.57" traveltime="235.00">
        <ride waitingTime="91.00" vehicle="t_12" depart="15250.00" arrival="15485.00" arrivalPos="70.28" duration="235.00" routeLength="3182.57" timeLoss="29.57"/>
    </personinfo>
    <personinfo id="67" depart="15289.00" type="DEFAULT_PEDTYPE" speedFactor="1.06" duration="360.00" waitingTime="121.00" timeLoss="86.78" traveltime="239.00">
        <ride waitingTime="121.00" vehicle="t_5" depart="15410.00" arrival="15649.00" arrivalPos="18.37" duration="239.00" routeLength="1816.39" timeLoss="86.78"/>
    </personinfo>
    <personinfo id="68" depart="15466.00" type="DEFAULT_PEDTYPE" speedFactor="1.04" duration="416.00" waitingTime="213.00" timeLoss="22.97" traveltime="203.00">
        <ride waitingTime="213.00" vehicle="t_9" depart="15679.00" arrival="15882.00" arrivalPos="33.53" duration="203.00" routeLength="1926.46" timeLoss="22.97"/>
    </personinfo>
    <personinfo id="70" depart="16135.00" type="DEFAULT_PEDTYPE" speedFactor="0.98" duration="252.00" waitingTime="76.00" timeLoss="21.08" traveltime="176.00">
        <ride waitingTime="76.00" vehicle="t_2" depart="16211.00" arrival="16387.00" arrivalPos="63.74" duration="176.00" routeLength="1607.47" timeLoss="21.08"/>
    </personinfo>
    <personinfo id="71" depart="16314.00" type="DEFAULT_PEDTYPE" speedFactor="0.83" duration="365.00" waitingTime="190.00" timeLoss="18.88" traveltime="175.00">
        <ride waitingTime="190.00" vehicle="t_10" depart="16504.00" arrival="16679.00" arrivalPos="48.99" duration="175.00" routeLength="1362.52" timeLoss="18.88"/>
    </personinfo>
    <personinfo id="69" depart="16092.00" type="DEFAULT_PEDTYPE" speedFactor="1.00" duration="712.00" waitingTime="321.00" timeLoss="43.71" traveltime="391.00">
        <ride waitingTime="321.00" vehicle="t_4" depart="16413.00" arrival="16804.00" arrivalPos="88.03" duration="391.00" routeLength="5888.60" timeLoss="43.71"/>
    </personinfo>
    <personinfo id="73" depart="16470.00" type="DEFAULT_PEDTYPE" speedFactor="1.12" duration="421.00" waitingTime="142.00" timeLoss="70.26" traveltime="279.00">
        <ride waitingTime="142.00" vehicle="t_11" depart="16612.00" arrival="16891.00" arrivalPos="85.47" duration="279.00" routeLength="2949.53" timeLoss="70.26"/>
    </personinfo>
    <personinfo id="72" depart="16458.00" type="DEFAULT_PEDTYPE" speedFactor="0.73" duration="528.00" waitingTime="133.00" timeLoss="39.01" traveltime="395.00">
        <ride waitingTime="133.00" vehicle="t_7" depart="16591.00" arrival="16986.00" arrivalPos="117.72" duration="395.00" routeLength="6034.17" timeLoss="39.01"/>
    </personinfo>
    <personinfo id="74" depart="16602.00" type="DEFAULT_PEDTYPE" speedFactor="1.04" duration="425.00" waitingTime="143.00" timeLoss="24.43" traveltime="282.00">
        <ride waitingTime="143.00" vehicle="t_10" depart="16745.00" arrival="17027.00" arrivalPos="97.31" duration="282.00" routeLength="4198.40" timeLoss="24.43"/>
    </personinfo>
    <personinfo id="75" depart="17109.00" type="DEFAULT_PEDTYPE" speedFactor="0.93" duration="426.00" waitingTime="60.00" timeLoss="92.50" traveltime="366.00">
        <ride waitingTime="60.00" vehicle="t_7" depart="17169.00" arrival="17535.00" arrivalPos="66.56" duration="366.00" routeLength="4340.79" timeLoss="92.50"/>
    </personinfo>
    <personinfo id="76" depart="17434.00" type="DEFAULT_PEDTYPE" speedFactor="0.97" duration="358.00" waitingTime="80.00" timeLoss="51.03" traveltime="278.00">
        <ride waitingTime="80.00" vehicle="t_4" depart="17514.00" arrival="17792.00" arrivalPos="3.04" duration="278.00" routeLength="2791.32" timeLoss="51.03"/>
    </personinfo>
    <personinfo id="77" depart="17484.00" type="DEFAULT_PEDTYPE" speedFactor="1.17" duration="576.00" waitingTime="231.00" timeLoss="83.38" traveltime="345.00">
        <ride waitingTime="231.00" vehicle="t_11" depart="17715.00" arrival="18060.00" arrivalPos="81.57" duration="345.00" routeLength="4429.28" timeLoss="83.38"/>
    </personinfo>
    <personinfo id="78" depart="17751.00" type="DEFAULT_PEDTYPE" speedFactor="1.02" duration="535.00" waitingTime="258.00" timeLoss="33.85" traveltime="277.00">
        <ride waitingTime="258.00" vehicle="t_7" depart="18009.00" arrival="18286.00" arrivalPos="13.58" duration="277.00" routeLength="3806.93" timeLoss="33.85"/>
    </personinfo>
    <personinfo id="79" depart="18306.00" type="DEFAULT_PEDTYPE" speedFactor="1.10" duration="459.00" waitingTime="94.00" timeLoss="60.18" traveltime="365.00">
        <ride waitingTime="94.00" vehicle="t_1" depart="18400.00" arrival="18765.00" arrivalPos="88.03" duration="365.00" routeLength="5557.74" timeLoss="60.18"/>
    </personinfo>
    <personinfo id="81" depart="18475.00" type="DEFAULT_PEDTYPE" speedFactor="0.82" duration="337.00" waitingTime="85.00" timeLoss="46.53" traveltime="252.00">
        <ride waitingTime="85.00" vehicle="t_2" depart="18560.00" arrival="18812.00" arrivalPos="46.21" duration="252.00" routeLength="2633.60" timeLoss="46.53"/>
    </personinfo>
    <personinfo id="82" depart="18600.00" type="DEFAULT_PEDTYPE" speedFactor="1.11" duration="407.00" waitingTime="54.00" timeLoss="100.49" traveltime="353.00">
        <ride waitingTime="54.00" vehicle="t_9" depart="18654.00" arrival="19007.00" arrivalPos="81.57" duration="353.00" routeLength="4160.28" timeLoss="100.49"/>
    </personinfo>
    <personinfo id="80" depart="18389.00" type="DEFAULT_PEDTYPE" speedFactor="0.88" duration="661.00" waitingTime="218.00" timeLoss="92.84" traveltime="443.00">