<?xml version="1.0" encoding="UTF-8"?>

<!-- generated on 2026-04-18T22:04:09.641918+08:00 by Eclipse SUMO sumo 1.26.0
<sumoConfiguration xmlns:xsi="http://www.w3.org/2001/XMLSchema-instance" xsi:noNamespaceSchemaLocation="http://sumo.dlr.de/xsd/sumoConfiguration.xsd">

    <input>
        <net-file value="D:\FYP\DeepPoolPer\SunwaySmallMap\osm.net.xml"/>
        <route-files value="D:\FYP\DeepPoolPer\SunwaySmallMap\self_request.rou.xml,D:\FYP\DeepPoolPer\SunwaySmallMap\taxi_more.rou.xml"/>
    </input>

    <output>
        <tripinfo-output value="D:\FYP\DeepPoolPer\SunwaySmallMap\tripinfos.xml"/>
        <statistic-output value="D:\FYP\DeepPoolPer\SunwaySmallMap\stats.xml"/>
    </output>

    <time>
        <step-length value="1.0"/>
    </time>

    <processing>
        <ignore-route-errors value="true"/>
        <tls.actuated.jam-threshold value="30"/>
    </processing>

    <routing>
        <device.rerouting.adaptation-steps value="18"/>
        <device.rerouting.adaptation-interval value="10"/>
    </routing>

    <report>
        <verbose value="true"/>
        <duration-log.statistics value="true"/>
        <no-step-log value="true"/>
    </report>

    <taxi_device>
        <device.taxi.dispatch-algorithm value="traci"/>
        <device.taxi.idle-algorithm value="stop"/>
    </taxi_device>

    <traci_server>
        <remote-port value="56788"/>
    </traci_server>

    <gui_only>
        <gui-settings-file value="D:\FYP\DeepPoolPer\SunwaySmallMap\osm.view.xml"/>
    </gui_only>

</sumoConfiguration>
-->

<tripinfos xmlns:xsi="http://www.w3.org/2001/XMLSchema-instance" xsi:noNamespaceSchemaLocation="http://sumo.dlr.de/xsd/tripinfo_file.xsd">
    <personinfo id="1" depart="454.00" type="DEFAULT_PEDTYPE" speedFactor="0.88" duration="233.00" waitingTime="51.00" timeLoss="23.87" traveltime="182.00">
        <ride waitingTime="51.00" vehicle="t_13" depart="505.00" arrival="687.00" arrivalPos="74.37" duration="182.00" routeLength="1378.65" timeLoss="23.87"/>
    </personinfo>
    <personinfo id="0" depart="70.00" type="DEFAULT_PEDTYPE" speedFactor="1.06" duration="619.00" waitingTime="133.00" timeLoss="120.90" traveltime="486.00">
        <ride waitingTime="133.00" vehicle="t_6" depart="203.00" arrival="689.00" arrivalPos="77.65" duration="486.00" routeLength="5748.36" timeLoss="120.90"/>
    </personinfo>
