<?xml version="1.0" encoding="UTF-8"?>

<!-- generated on 2026-04-20T02:20:47.059151+08:00 by Eclipse SUMO sumo 1.26.0
<sumoConfiguration xmlns:xsi="http://www.w3.org/2001/XMLSchema-instance" xsi:noNamespaceSchemaLocation="http://sumo.dlr.de/xsd/sumoConfiguration.xsd">

    <input>
        <net-file value="D:\FYP\DeepPoolPer_Comparison\SunwaySmallMap\osm.net.xml"/>
        <route-files value="D:\FYP\DeepPoolPer_Comparison\SunwaySmallMap\self_request.rou.xml,D:\FYP\DeepPoolPer_Comparison\SunwaySmallMap\taxi_more.rou.xml"/>
    </input>

    <output>
        <tripinfo-output value="D:\FYP\DeepPoolPer_Comparison\SunwaySmallMap\tripinfos.xml"/>
        <statistic-output value="D:\FYP\DeepPoolPer_Comparison\SunwaySmallMap\stats.xml"/>
    </output>

    <time>
        <step-length value="1.0"/>
    </time>

    <processing>
        <ignore-route-errors value="true"/>
        <tls.actuated.jam-threshold value="30"/>
    </processing>

    <routing>
        <device.rerouting.adaptation-steps value="18"/>
        <device.rerouting.adaptation-interval value="10"/>
    </routing>

    <report>
        <verbose value="true"/>
        <duration-log.statistics value="true"/>
        <no-step-log value="true"/>
    </report>

    <taxi_device>
        <device.taxi.dispatch-algorithm value="traci"/>
        <device.taxi.idle-algorithm value="stop"/>
    </taxi_device>

    <traci_server>
        <remote-port value="64192"/>
    </traci_server>

    <gui_only>
        <gui-settings-file value="D:\FYP\DeepPoolPer_Comparison\SunwaySmallMap\osm.view.xml"/>
    </gui_only>

</sumoConfiguration>
-->

<tripinfos xmlns:xsi="http://www.w3.org/2001/XMLSchema-instance" xsi:noNamespaceSchemaLocation="http://sumo.dlr.de/xsd/tripinfo_file.xsd">
    <personinfo id="0" depart="70.00" type="DEFAULT_PEDTYPE" speedFactor="1.06" duration="613.00" waitingTime="156.00" timeLoss="127.15" traveltime="457.00">
        <ride waitingTime="156.00" vehicle="t_12" depart="226.00" arrival="683.00" arrivalPos="77.65" duration="457.00" routeLength="5748.36" timeLoss="127.15"/>
    </personinfo>
    <personinfo id="1" depart="454.00" type="DEFAULT_PEDTYPE" speedFactor="0.88" duration="298.00" waitingTime="117.00" timeLoss="24.29" traveltime="181.00">
        <ride waitingTime="117.00" vehicle="t_10" depart="571.00" arrival="752.00" arrivalPos="74.37" duration="181.00" routeLength="1378.63" timeLoss="24.29"/>
    </personinfo>
    <personinfo id="3" depart="1093.00" type="DEFAULT_PEDTYPE" speedFactor="1.14" duration="303.00" waitingTime="10.00" timeLoss="30.59" traveltime="293.00">
        <ride waitingTime="10.00" vehicle="t_7" depart="1103.00" arrival="1396.00" arrivalPos="125.51" duration="293.00" routeLength="2915.14" timeLoss="30.59"/>
    </personinfo>
    <personinfo id="2" depart="1083.00" type="DEFAULT_PEDTYPE" speedFactor="0.99" duration="436.00" waitingTime="71.00" timeLoss="106.44" traveltime="365.00">
        <ride waitingTime="71.00" vehicle="t_9" depart="1154.00" arrival="1519.00" arrivalPos="77.65" duration="365.00" routeLength="4227.37" timeLoss="106.44"/>
    </personinfo>
    <personinfo id="6" depart="1309.00" type="DEFAULT_PEDTYPE" speedFactor="1.08" duration="331.00" waitingTime="63.00" timeLoss="16.69" traveltime="268.00">
        <ride waitingTime="63.00" vehicle="t_14" depart="1372.00" arrival="1640.00" arrivalPos="117.72" duration="268.00" routeLength="3463.90" timeLoss="16.69"/>
    </personinfo>
    <personinfo id="8" depart="1372.00" type="DEFAULT_PEDTYPE" speedFactor="0.73" duration="325.00" waitingTime="128.00" timeLoss="41.59" traveltime="197.00">
        <ride waitingTime="128.00" vehicle="t_4" depart="1500.00" arrival="1697.00" arrivalPos="66.56" duration="197.00" routeLength="1903.94" timeLoss="41.59"/>
    </personinfo>
    <personinfo id="4" depart="1229.00" type="DEFAULT_PEDTYPE" speedFactor="1.02" duration="483.00" waitingTime="53.00" timeLoss="97.29" traveltime="430.00">
        <ride waitingTime="53.00" vehicle="t_12" depart="1282.00" arrival="1712.00" arrivalPos="105.07" duration="430.00" routeLength="5318.93" timeLoss="97.29"/>
    </personinfo>
    <personinfo id="9" depart="1456.00" type="DEFAULT_PEDTYPE" speedFactor="1.14" duration="270.00" waitingTime="119.00" timeLoss="16.05" traveltime="151.00">
        <ride waitingTime="119.00" vehicle="t_10" depart="1575.00" arrival="1726.00" arrivalPos="27.15" duration="151.00" routeLength="1039.49" timeLoss="16.05"/>
    </personinfo>
    <personinfo id="10" depart="1468.00" type="DEFAULT_PEDTYPE" speedFactor="0.89" duration="273.00" waitingTime="64.00" timeLoss="41.55" traveltime="209.00">
        <ride waitingTime="64.00" vehicle="t_7" depart="1532.00" arrival="1741.00" arrivalPos="13.58" duration="209.00" routeLength="1904.84" timeLoss="41.55"/>
    </personinfo>
    <personinfo id="7" depart="1317.00" type="DEFAULT_PEDTYPE" speedFactor="1.13" duration="502.00" waitingTime="223.00" timeLoss="49.82" traveltime="279.00">
        <ride waitingTime="223.00" vehicle="t_11" depart="1540.00" arrival="1819.00" arrivalPos="139.84" duration="279.00" routeLength="3651.14" timeLoss="49.82"/>
    </personinfo>
    <personinfo id="5" depart="1251.00" type="DEFAULT_PEDTYPE" speedFactor="0.97" duration="653.00" waitingTime="264.00" timeLoss="62.57" traveltime="389.00">
        <ride waitingTime="264.00" vehicle="t_3" depart="1515.00" arrival="1904.00" arrivalPos="105.07" duration="389.00" routeLength="5349.81" timeLoss="62.57"/>
    </personinfo>
    <personinfo id="11" depart="1531.00" type="DEFAULT_PEDTYPE" speedFactor="1.00" duration="396.00" waitingTime="136.00" timeLoss="39.57" traveltime="260.00">
        <ride waitingTime="136.00" vehicle="t_5" depart="1667.00" arrival="1927.00" arrivalPos="11.40" duration="260.00" routeLength="2934.93" timeLoss="39.57"/>
    </personinfo>
    <personinfo id="12" depart="1850.00" type="DEFAULT_PEDTYPE" speedFactor="1.01" duration="437.00" waitingTime="67.00" timeLoss="84.19" traveltime="370.00">
        <ride waitingTime="67.00" vehicle="t_12" depart="1917.00" arrival="2287.00" arrivalPos="757.86" duration="370.00" routeLength="3382.71" timeLoss="84.19"/>
    </personinfo>
    <personinfo id="13" depart="2003.00" type="DEFAULT_PEDTYPE" speedFactor="1.20" duration="630.00" waitingTime="100.00" timeLoss="168.71" traveltime="530.00">
        <ride waitingTime="100.00" vehicle="t_6" depart="2103.00" arrival="2633.00" arrivalPos="127.70" duration="530.00" routeLength="5759.87" timeLoss="168.71"/>
    </personinfo>
    <personinfo id="14" depart="2024.00" type="DEFAULT_PEDTYPE" speedFactor="0.90" duration="711.00" waitingTime="447.00" timeLoss="38.98" traveltime="264.00">
        <ride waitingTime="447.00" vehicle="t_12" depart="2471.00" arrival="2735.00" arrivalPos="77.65" duration="264.00" routeLength="2884.57" timeLoss="38.98"/>
    </personinfo>
    <personinfo id="15" depart="2590.00" type="DEFAULT_PEDTYPE" speedFactor="0.99" duration="578.00" waitingTime="151.00" timeLoss="94.23" traveltime="427.00">
        <ride waitingTime="151.00" vehicle="t_10" depart="2741.00" arrival="3168.00" arrivalPos="86.92" duration="427.00" routeLength="5453.22" timeLoss="94.23"/>
    </personinfo>
    <personinfo id="17" depart="2773.00" type="DEFAULT_PEDTYPE" speedFactor="1.05" duration="417.00" waitingTime="173.00" timeLoss="27.29" traveltime="244.00">
        <ride waitingTime="173.00" vehicle="t_8" depart="2946.00" arrival="3190.00" arrivalPos="38.69" duration="244.00" routeLength="2673.47" timeLoss="27.29"/>
    </personinfo>
    <personinfo id="16" depart="2696.00" type="DEFAULT_PEDTYPE" speedFactor="1.05" duration="617.00" waitingTime="109.00" timeLoss="70.50" traveltime="508.00">
        <ride waitingTime="109.00" vehicle="t_4" depart="2805.00" arrival="3313.00" arrivalPos="105.07" duration="508.00" routeLength="6379.94" timeLoss="70.50"/>
    </personinfo>
    <personinfo id="18" depart="2858.00" type="DEFAULT_PEDTYPE" speedFactor="0.76" duration="457.00" waitingTime="212.00" timeLoss="23.36" traveltime="245.00">
        <ride waitingTime="212.00" vehicle="t_7" depart="3070.00" arrival="3315.00" arrivalPos="68.01" duration="245.00" routeLength="2619.84" timeLoss="23.36"/>
    </personinfo>
    <personinfo id="19" depart="3086.00" type="DEFAULT_PEDTYPE" speedFactor="1.05" duration="478.00" waitingTime="44.00" timeLoss="47.23" traveltime="434.00">
        <ride waitingTime="44.00" vehicle="t_4" depart="3130.00" arrival="3564.00" arrivalPos="139.40" duration="434.00" routeLength="3555.74" timeLoss="47.23"/>
    </personinfo>
    <personinfo id="20" depart="3344.00" type="DEFAULT_PEDTYPE" speedFactor="0.86" duration="244.00" waitingTime="127.00" timeLoss="8.46" traveltime="117.00">
        <ride waitingTime="127.00" vehicle="t_14" depart="3471.00" arrival="3588.00" arrivalPos="14.88" duration="117.00" routeLength="905.18" timeLoss="8.46"/>
    </personinfo>
    <personinfo id="21" depart="3358.00" type="DEFAULT_PEDTYPE" speedFactor="1.07" duration="390.00" waitingTime="104.00" timeLoss="43.52" traveltime="286.00">
        <ride waitingTime="104.00" vehicle="t_5" depart="3462.00" arrival="3748.00" arrivalPos="117.72" duration="286.00" routeLength="3463.89" timeLoss="43.52"/>
    </personinfo>
    <personinfo id="23" depart="3567.00" type="DEFAULT_PEDTYPE" speedFactor="0.86" duration="229.00" waitingTime="57.00" timeLoss="22.40" traveltime="172.00">
        <ride waitingTime="57.00" vehicle="t_12" depart="3624.00" arrival="3796.00" arrivalPos="70.28" duration="172.00" routeLength="1734.65" timeLoss="22.40"/>
    </personinfo>
    <personinfo id="22" depart="3529.00" type="DEFAULT_PEDTYPE" speedFactor="0.86" duration="386.00" waitingTime="182.00" timeLoss="45.57" traveltime="204.00">
        <ride waitingTime="182.00" vehicle="t_1" depart="3711.00" arrival="3915.00" arrivalPos="18.57" duration="204.00" routeLength="1972.01" timeLoss="45.57"/>
    </personinfo>
    <personinfo id="24" depart="4113.00" type="DEFAULT_PEDTYPE" speedFactor="0.90" duration="219.00" waitingTime="87.00" timeLoss="10.05" traveltime="132.00">
        <ride waitingTime="87.00" vehicle="t_0" depart="4200.00" arrival="4332.00" arrivalPos="23.96" duration="132.00" routeLength="761.77" timeLoss="10.05"/>
    </personinfo>
    <personinfo id="25" depart="4762.00" type="DEFAULT_PEDTYPE" speedFactor="1.01" duration="500.00" waitingTime="108.00" timeLoss="89.57" traveltime="392.00">
        <ride waitingTime="108.00" vehicle="t_4" depart="4870.00" arrival="5262.00" arrivalPos="52.47" duration="392.00" routeLength="4909.19" timeLoss="89.57"/>
    </personinfo>
    <personinfo id="26" depart="5290.00" type="DEFAULT_PEDTYPE" speedFactor="0.94" duration="346.00" waitingTime="140.00" timeLoss="31.94" traveltime="206.00">
        <ride waitingTime="140.00" vehicle="t_11" depart="5430.00" arrival="5636.00" arrivalPos="117.72" duration="206.00" routeLength="1767.05" timeLoss="31.94"/>
    </personinfo>
    <personinfo id="27" depart="5355.00" type="DEFAULT_PEDTYPE" speedFactor="1.10" duration="441.00" waitingTime="174.00" timeLoss="34.71" traveltime="267.00">
        <ride waitingTime="174.00" vehicle="t_5" depart="5529.00" arrival="5796.00" arrivalPos="45.85" duration="267.00" routeLength="3249.40" timeLoss="34.71"/>
    </personinfo>
    <personinfo id="28" depart="5371.00" type="DEFAULT_PEDTYPE" speedFactor="0.89" duration="467.00" waitingTime="201.00" timeLoss="28.56" traveltime="266.00">
        <ride waitingTime="201.00" vehicle="t_2" depart="5572.00" arrival="5838.00" arrivalPos="3.04" duration="266.00" routeLength="2563.11" timeLoss="28.56"/>
    </personinfo>
    <personinfo id="29" depart="5737.00" type="DEFAULT_PEDTYPE" speedFactor="1.11" duration="488.00" waitingTime="107.00" timeLoss="118.08" traveltime="381.00">
        <ride waitingTime="107.00" vehicle="t_10" depart="5844.00" arrival="6225.00" arrivalPos="117.15" duration="381.00" routeLength="4982.05" timeLoss="118.08"/>
    </personinfo>
    <personinfo id="32" depart="6017.00" type="DEFAULT_PEDTYPE" speedFactor="0.88" duration="227.00" waitingTime="31.00" timeLoss="34.12" traveltime="196.00">
        <ride waitingTime="31.00" vehicle="t_3" depart="6048.00" arrival="6244.00" arrivalPos="85.99" duration="196.00" routeLength="1666.48" timeLoss="34.12"/>
    </personinfo>
    <personinfo id="30" depart="5783.00" type="DEFAULT_PEDTYPE" speedFactor="1.12" duration="556.00" waitingTime="146.00" timeLoss="50.02" traveltime="410.00">
        <ride waitingTime="146.00" vehicle="t_7" depart="5929.00" arrival="6339.00" arrivalPos="892.96" duration="410.00" routeLength="4334.20" timeLoss="50.02"/>
    </personinfo>
    <personinfo id="31" depart="6004.00" type="DEFAULT_PEDTYPE" speedFactor="1.08" duration="353.00" waitingTime="37.00" timeLoss="65.01" traveltime="316.00">
        <ride waitingTime="37.00" vehicle="t_6" depart="6041.00" arrival="6357.00" arrivalPos="4.99" duration="316.00" routeLength="4637.73" timeLoss="65.01"/>
    </personinfo>
    <personinfo id="33" depart="6340.00" type="DEFAULT_PEDTYPE" speedFactor="1.04" duration="285.00" waitingTime="18.00" timeLoss="54.19" traveltime="267.00">
        <ride waitingTime="18.00" vehicle="t_6" depart="6358.00" arrival="6625.00" arrivalPos="53.15" duration="267.00" routeLength="2120.86" timeLoss="54.19"/>
    </personinfo>
    <personinfo id="34" depart="7653.00" type="DEFAULT_PEDTYPE" speedFactor="0.99" duration="322.00" waitingTime="130.00" timeLoss="38.21" traveltime="192.00">
        <ride waitingTime="130.00" vehicle="t_11" depart="7783.00" arrival="7975.00" arrivalPos="18.89" duration="192.00" routeLength="1907.01" timeLoss="38.21"/>
    </personinfo>
    <personinfo id="36" depart="8186.00" type="DEFAULT_PEDTYPE" speedFactor="0.75" duration="394.00" waitingTime="148.00" timeLoss="17.62" traveltime="246.00">
        <ride waitingTime="148.00" vehicle="t_3" depart="8334.00" arrival="8580.00" arrivalPos="88.03" duration="246.00" routeLength="3524.56" timeLoss="17.62"/>
    </personinfo>
    <personinfo id="35" depart="7996.00" type="DEFAULT_PEDTYPE" speedFactor="1.10" duration="683.00" waitingTime="183.00" timeLoss="111.17" traveltime="500.00">
        <ride waitingTime="183.00" vehicle="t_6" depart="8179.00" arrival="8679.00" arrivalPos="52.47" duration="500.00" routeLength="6223.32" timeLoss="111.17"/>
    </personinfo>
    <personinfo id="37" depart="8618.00" type="DEFAULT_PEDTYPE" speedFactor="0.88" duration="423.00" waitingTime="78.00" timeLoss="93.60" traveltime="345.00">
        <ride waitingTime="78.00" vehicle="t_12" depart="8696.00" arrival="9041.00" arrivalPos="22.37" duration="345.00" routeLength="3724.48" timeLoss="93.60"/>
    </personinfo>
    <personinfo id="39" depart="8779.00" type="DEFAULT_PEDTYPE" speedFactor="1.04" duration="270.00" waitingTime="99.00" timeLoss="23.92" traveltime="171.00">
        <ride waitingTime="99.00" vehicle="t_0" depart="8878.00" arrival="9049.00" arrivalPos="14.88" duration="171.00" routeLength="1384.47" timeLoss="23.92"/>
    </personinfo>
    <personinfo id="38" depart="8627.00" type="DEFAULT_PEDTYPE" speedFactor="0.94" duration="423.00" waitingTime="95.00" timeLoss="54.46" traveltime="328.00">
        <ride waitingTime="95.00" vehicle="t_1" depart="8722.00" arrival="9050.00" arrivalPos="29.51" duration="328.00" routeLength="4222.94" timeLoss="54.46"/>
    </personinfo>
    <personinfo id="42" depart="9140.00" type="DEFAULT_PEDTYPE" speedFactor="0.99" duration="136.00" waitingTime="29.00" timeLoss="6.18" traveltime="107.00">
        <ride waitingTime="29.00" vehicle="t_0" depart="9169.00" arrival="9276.00" arrivalPos="15.91" duration="107.00" routeLength="470.57" timeLoss="6.18"/>
    </personinfo>
    <personinfo id="41" depart="9137.00" type="DEFAULT_PEDTYPE" speedFactor="1.11" duration="352.00" waitingTime="164.00" timeLoss="12.86" traveltime="188.00">
        <ride waitingTime="164.00" vehicle="t_12" depart="9301.00" arrival="9489.00" arrivalPos="37.52" duration="188.00" routeLength="2145.79" timeLoss="12.86"/>
    </personinfo>
    <personinfo id="40" depart="9055.00" type="DEFAULT_PEDTYPE" speedFactor="1.21" duration="509.00" waitingTime="131.00" timeLoss="97.33" traveltime="378.00">
        <ride waitingTime="131.00" vehicle="t_11" depart="9186.00" arrival="9564.00" arrivalPos="41.64" duration="378.00" routeLength="5462.57" timeLoss="97.33"/>
    </personinfo>
    <personinfo id="43" depart="9572.00" type="DEFAULT_PEDTYPE" speedFactor="1.09" duration="382.00" waitingTime="128.00" timeLoss="28.14" traveltime="254.00">
        <ride waitingTime="128.00" vehicle="t_5" depart="9700.00" arrival="9954.00" arrivalPos="32.30" duration="254.00" routeLength="2966.34" timeLoss="28.14"/>
    </personinfo>
    <personinfo id="44" depart="9690.00" type="DEFAULT_PEDTYPE" speedFactor="0.97" duration="478.00" waitingTime="166.00" timeLoss="48.37" traveltime="312.00">
        <ride waitingTime="166.00" vehicle="t_8" depart="9856.00" arrival="10168.00" arrivalPos="26.51" duration="312.00" routeLength="3587.49" timeLoss="48.37"/>
    </personinfo>
    <personinfo id="45" depart="10210.00" type="DEFAULT_PEDTYPE" speedFactor="0.99" duration="336.00" waitingTime="109.00" timeLoss="76.55" traveltime="227.00">
        <ride waitingTime="109.00" vehicle="t_1" depart="10319.00" arrival="10546.00" arrivalPos="13.58" duration="227.00" routeLength="2011.51" timeLoss="76.55"/>
    </personinfo>
    <personinfo id="46" depart="10554.00" type="DEFAULT_PEDTYPE" speedFactor="1.06" duration="428.00" waitingTime="119.00" timeLoss="63.14" traveltime="309.00">
        <ride waitingTime="119.00" vehicle="t_5" depart="10673.00" arrival="10982.00" arrivalPos="0.47" duration="309.00" routeLength="3771.81" timeLoss="63.14"/>
    </personinfo>
    <personinfo id="47" depart="11006.00" type="DEFAULT_PEDTYPE" speedFactor="1.03" duration="283.00" waitingTime="60.00" timeLoss="21.50" traveltime="223.00">
        <ride waitingTime="60.00" vehicle="t_3" depart="11066.00" arrival="11289.00" arrivalPos="339.41" duration="223.00" routeLength="2015.89" timeLoss="21.50"/>
    </personinfo>
    <personinfo id="48" depart="11292.00" type="DEFAULT_PEDTYPE" speedFactor="1.01" duration="479.00" waitingTime="142.00" timeLoss="85.64" traveltime="337.00">
        <ride waitingTime="142.00" vehicle="t_3" depart="11434.00" arrival="11771.00" arrivalPos="273.01" duration="337.00" routeLength="3103.03" timeLoss="85.64"/>
    </personinfo>
    <personinfo id="49" depart="11924.00" type="DEFAULT_PEDTYPE" speedFactor="0.96" duration="611.00" waitingTime="238.00" timeLoss="59.12" traveltime="373.00">
        <ride waitingTime="238.00" vehicle="t_13" depart="12162.00" arrival="12535.00" arrivalPos="127.70" duration="373.00" routeLength="5421.74" timeLoss="59.12"/>
    </personinfo>
    <personinfo id="51" depart="12505.00" type="DEFAULT_PEDTYPE" speedFactor="0.92" duration="432.00" waitingTime="133.00" timeLoss="66.45" traveltime="299.00">
        <ride waitingTime="133.00" vehicle="t_2" depart="12638.00" arrival="12937.00" arrivalPos="240.81" duration="299.00" routeLength="3149.30" timeLoss="66.45"/>
    </personinfo>
    <personinfo id="52" depart="12710.00" type="DEFAULT_PEDTYPE" speedFactor="0.87" duration="426.00" waitingTime="187.00" timeLoss="24.48" traveltime="239.00">
        <ride waitingTime="187.00" vehicle="t_10" depart="12897.00" arrival="13136.00" arrivalPos="105.07" duration="239.00" routeLength="2367.23" timeLoss="24.48"/>
    </personinfo>
    <personinfo id="50" depart="12471.00" type="DEFAULT_PEDTYPE" speedFactor="1.06" duration="705.00" waitingTime="354.00" timeLoss="49.80" traveltime="351.00">
        <ride waitingTime="354.00" vehicle="t_5" depart="12825.00" arrival="13176.00" arrivalPos="38.27" duration="351.00" routeLength="4954.95" timeLoss="49.80"/>
    </personinfo>
    <personinfo id="53" depart="12755.00" type="DEFAULT_PEDTYPE" speedFactor="1.03" duration="522.00" waitingTime="174.00" timeLoss="87.65" traveltime="348.00">
        <ride waitingTime="174.00" vehicle="t_11" depart="12929.00" arrival="13277.00" arrivalPos="979.46" duration="348.00" routeLength="3050.81" timeLoss="87.65"/>
    </personinfo>
    <personinfo id="54" depart="13004.00" type="DEFAULT_PEDTYPE" speedFactor="0.97" duration="339.00" waitingTime="161.00" timeLoss="9.96" traveltime="178.00">
        <ride waitingTime="161.00" vehicle="t_0" depart="13165.00" arrival="13343.00" arrivalPos="75.73" duration="178.00" routeLength="1621.78" timeLoss="9.96"/>
    </personinfo>
    <personinfo id="55" depart="13154.00" type="DEFAULT_PEDTYPE" speedFactor="0.94" duration="377.00" waitingTime="70.00" timeLoss="59.46" traveltime="307.00">
        <ride waitingTime="70.00" vehicle="t_10" depart="13224.00" arrival="13531.00" arrivalPos="56.18" duration="307.00" routeLength="4211.29" timeLoss="59.46"/>
    </personinfo>
    <personinfo id="57" depart="13812.00" type="DEFAULT_PEDTYPE" speedFactor="0.78" duration="405.00" waitingTime="110.00" timeLoss="62.68" traveltime="295.00">
        <ride waitingTime="110.00" vehicle="t_14" depart="13922.00" arrival="14217.00" arrivalPos="11.40" duration="295.00" routeLength="3058.75" timeLoss="62.68"/>
    </personinfo>
    <personinfo id="56" depart="13716.00" type="DEFAULT_PEDTYPE" speedFactor="1.06" duration="562.00" waitingTime="168.00" timeLoss="59.32" traveltime="394.00">
        <ride waitingTime="168.00" vehicle="t_11" depart="13884.00" arrival="14278.00" arrivalPos="86.92" duration="394.00" routeLength="5448.04" timeLoss="59.32"/>
    </personinfo>
    <personinfo id="58" depart="14157.00" type="DEFAULT_PEDTYPE" speedFactor="1.01" duration="412.00" waitingTime="91.00" timeLoss="31.07" traveltime="321.00">
        <ride waitingTime="91.00" vehicle="t_1" depart="14248.00" arrival="14569.00" arrivalPos="53.15" duration="321.00" routeLength="3916.95" timeLoss="31.07"/>
    </personinfo>
    <personinfo id="59" depart="14283.00" type="DEFAULT_PEDTYPE" speedFactor="0.91" duration="353.00" waitingTime="157.00" timeLoss="19.66" traveltime="196.00">
        <ride waitingTime="157.00" vehicle="t_2" depart="14440.00" arrival="14636.00" arrivalPos="105.07" duration="196.00" routeLength="1749.73" timeLoss="19.66"/>
    </personinfo>
    <personinfo id="60" depart="14450.00" type="DEFAULT_PEDTYPE" speedFactor="1.07" duration="230.00" waitingTime="107.00" timeLoss="4.91" traveltime="123.00">
        <ride waitingTime="107.00" vehicle="t_12" depart="14557.00" arrival="14680.00" arrivalPos="15.91" duration="123.00" routeLength="470.58" timeLoss="4.91"/>
    </personinfo>
    <personinfo id="61" depart="14466.00" type="DEFAULT_PEDTYPE" speedFactor="0.96" duration="419.00" waitingTime="96.00" timeLoss="55.56" traveltime="323.00">
        <ride waitingTime="96.00" vehicle="t_11" depart="14562.00" arrival="14885.00" arrivalPos="18.37" duration="323.00" routeLength="4627.81" timeLoss="55.56"/>
    </personinfo>
    <personinfo id="62" depart="14617.00" type="DEFAULT_PEDTYPE" speedFactor="1.05" duration="479.00" waitingTime="174.00" timeLoss="70.32" traveltime="305.00">
        <ride waitingTime="174.00" vehicle="t_12" depart="14791.00" arrival="15096.00" arrivalPos="240.81" duration="305.00" routeLength="2983.46" timeLoss="70.32"/>
    </personinfo>
    <personinfo id="63" depart="14725.00" type="DEFAULT_PEDTYPE" speedFactor="1.05" duration="398.00" waitingTime="236.00" timeLoss="18.75" traveltime="162.00">
        <ride waitingTime="236.00" vehicle="t_14" depart="14961.00" arrival="15123.00" arrivalPos="18.57" duration="162.00" routeLength="1601.08" timeLoss="18.75"/>
    </personinfo>
    <personinfo id="64" depart="14788.00" type="DEFAULT_PEDTYPE" speedFactor="0.98" duration="377.00" waitingTime="147.00" timeLoss="78.72" traveltime="230.00">
        <ride waitingTime="147.00" vehicle="t_5" depart="14935.00" arrival="15165.00" arrivalPos="18.37" duration="230.00" routeLength="1816.44" timeLoss="78.72"/>
    </personinfo>
    <personinfo id="65" depart="15080.00" type="DEFAULT_PEDTYPE" speedFactor="1.07" duration="362.00" waitingTime="140.00" timeLoss="25.68" traveltime="222.00">
        <ride waitingTime="140.00" vehicle="t_13" depart="15220.00" arrival="15442.00" arrivalPos="52.47" duration="222.00" routeLength="2391.95" timeLoss="25.68"/>
    </personinfo>
    <personinfo id="66" depart="15159.00" type="DEFAULT_PEDTYPE" speedFactor="1.07" duration="513.00" waitingTime="247.00" timeLoss="50.66" traveltime="266.00">
        <ride waitingTime="247.00" vehicle="t_1" depart="15406.00" arrival="15672.00" arrivalPos="70.28" duration="266.00" routeLength="3182.57" timeLoss="50.66"/>
    </personinfo>
    <personinfo id="67" depart="15289.00" type="DEFAULT_PEDTYPE" speedFactor="1.01" duration="464.00" waitingTime="240.00" timeLoss="65.65" traveltime="224.00">
        <ride waitingTime="240.00" vehicle="t_0" depart="15529.00" arrival="15753.00" arrivalPos="18.37" duration="224.00" routeLength="1816.48" timeLoss="65.65"/>
    </personinfo>
    <personinfo id="68" depart="15466.00" type="DEFAULT_PEDTYPE" speedFactor="0.93" duration="387.00" waitingTime="168.00" timeLoss="25.26" traveltime="219.00">
        <ride waitingTime="168.00" vehicle="t_8" depart="15634.00" arrival="15853.00" arrivalPos="33.53" duration="219.00" routeLength="1926.54" timeLoss="25.26"/>
    </personinfo>
    <personinfo id="70" depart="16135.00" type="DEFAULT_PEDTYPE" speedFactor="1.15" duration="232.00" waitingTime="45.00" timeLoss="27.13" traveltime="187.00">
        <ride waitingTime="45.00" vehicle="t_0" depart="16180.00" arrival="16367.00" arrivalPos="63.74" duration="187.00" routeLength="1607.46" timeLoss="27.13"/>
    </personinfo>
    <personinfo id="69" depart="16092.00" type="DEFAULT_PEDTYPE" speedFactor="0.93" duration="453.00" waitingTime="101.00" timeLoss="32.29" traveltime="352.00">
        <ride waitingTime="101.00" vehicle="t_10" depart="16193.00" arrival="16545.00" arrivalPos="88.03" duration="352.00" routeLength="5888.65" timeLoss="32.29"/>
    </personinfo>
    <personinfo id="71" depart="16314.00" type="DEFAULT_PEDTYPE" speedFactor="1.02" duration="409.00" waitingTime="238.00" timeLoss="16.38" traveltime="171.00">
        <ride waitingTime="238.00" vehicle="t_5" depart="16552.00" arrival="16723.00" arrivalPos="48.99" duration="171.00" routeLength="1362.52" timeLoss="16.38"/>
    </personinfo>
    <personinfo id="73" depart="16470.00" type="DEFAULT_PEDTYPE" speedFactor="0.85" duration="455.00" waitingTime="184.00" timeLoss="55.28" traveltime="271.00">
        <ride waitingTime="184.00" vehicle="t_0" depart="16654.00" arrival="16925.00" arrivalPos="85.47" duration="271.00" routeLength="2949.57" timeLoss="55.28"/>
    </personinfo>
    <personinfo id="72" depart="16458.00" type="DEFAULT_PEDTYPE" speedFactor="0.85" duration="526.00" waitingTime="122.00" timeLoss="48.37" traveltime="404.00">
        <ride waitingTime="122.00" vehicle="t_14" depart="16580.00" arrival="16984.00" arrivalPos="117.72" duration="404.00" routeLength="6034.25" timeLoss="48.37"/>
    </personinfo>
    <personinfo id="74" depart="16602.00" type="DEFAULT_PEDTYPE" speedFactor="0.86" duration="492.00" waitingTime="198.00" timeLoss="38.95" traveltime="294.00">
        <ride waitingTime="198.00" vehicle="t_5" depart="16800.00" arrival="17094.00" arrivalPos="97.31" duration="294.00" routeLength="4198.38" timeLoss="38.95"/>
    </personinfo>
    <personinfo id="75" depart="17109.00" type="DEFAULT_PEDTYPE" speedFactor="0.97" duration="424.00" waitingTime="80.00" timeLoss="82.39" traveltime="344.00">
        <ride waitingTime="80.00" vehicle="t_5" depart="17189.00" arrival="17533.00" arrivalPos="66.56" duration="344.00" routeLength="4340.82" timeLoss="82.39"/>
    </personinfo>
    <personinfo id="76" depart="17434.00" type="DEFAULT_PEDTYPE" speedFactor="0.92" duration="386.00" waitingTime="86.00" timeLoss="59.24" traveltime="300.00">
        <ride waitingTime="86.00" vehicle="t_12" depart="17520.00" arrival="17820.00" arrivalPos="3.04" duration="300.00" routeLength="2791.30" timeLoss="59.24"/>
    </personinfo>
    <personinfo id="77" depart="17484.00" type="DEFAULT_PEDTYPE" speedFactor="0.86" duration="502.00" waitingTime="161.00" timeLoss="82.35" traveltime="341.00">
        <ride waitingTime="161.00" vehicle="t_2" depart="17645.00" arrival="17986.00" arrivalPos="81.57" duration="341.00" routeLength="4429.32" timeLoss="82.35"/>
    </personinfo>
    <personinfo id="78" depart="17751.00" type="DEFAULT_PEDTYPE" speedFactor="0.94" duration="454.00" waitingTime="152.00" timeLoss="73.71" traveltime="302.00">
        <ride waitingTime="152.00" vehicle="t_12" depart="17903.00" arrival="18205.00" arrivalPos="13.58" duration="302.00" routeLength="3806.89" timeLoss="73.71"/>
    </personinfo>
    <personinfo id="79" depart="18306.00" type="DEFAULT_PEDTYPE" speedFactor="0.98" duration="474.00" waitingTime="95.00" timeLoss="48.57" traveltime="379.00">
        <ride waitingTime="95.00" vehicle="t_4" depart="18401.00" arrival="18780.00" arrivalPos="88.03" duration="379.00" routeLength="5557.71" timeLoss="48.57"/>
    </personinfo>
    <personinfo id="81" depart="18475.00" type="DEFAULT_PEDTYPE" speedFactor="1.00" duration="346.00" waitingTime="100.00" timeLoss="37.86" traveltime="246.00">
        <ride waitingTime="100.00" vehicle="t_11" depart="18575.00" arrival="18821.00" arrivalPos="46.21" duration="246.00" routeLength="2633.61" timeLoss="37.86"/>
    </personinfo>
    <personinfo id="80" depart="18389.00" type="DEFAULT_PEDTYPE" speedFactor="0.90" duration="586.00" waitingTime="209.00" timeLoss="73.44" traveltime="377.00">