<?xml version="1.0" encoding="UTF-8"?>

<!-- generated on 2026-04-20T19:49:36.474853+08:00 by Eclipse SUMO sumo 1.26.0
<sumoConfiguration xmlns:xsi="http://www.w3.org/2001/XMLSchema-instance" xsi:noNamespaceSchemaLocation="http://sumo.dlr.de/xsd/sumoConfiguration.xsd">

    <input>
        <net-file value="../../SunwaySmallMap/osm.net.xml"/>
        <route-files value="../../SunwaySmallMap/self_request_300.rou.xml,../../SunwaySmallMap/taxi_more_300.rou.xml"/>
    </input>

    <output>
        <tripinfo-output value="../../SunwaySmallMap/tripinfos.xml"/>
        <statistic-output value="../../SunwaySmallMap/stats.xml"/>
    </output>

    <time>
        <step-length value="1.0"/>
    </time>

    <processing>
        <ignore-route-errors value="true"/>
        <tls.actuated.jam-threshold value="30"/>
    </processing>

    <routing>
        <device.rerouting.adaptation-steps value="18"/>
        <device.rerouting.adaptation-interval value="10"/>
    </routing>

    <report>
        <verbose value="true"/>
        <duration-log.statistics value="true"/>
        <no-step-log value="true"/>
    </report>

    <taxi_device>
        <device.taxi.dispatch-algorithm value="traci"/>
        <device.taxi.idle-algorithm value="stop"/>
    </taxi_device>

    <traci_server>
        <remote-port value="59558"/>
    </traci_server>

    <gui_only>
        <gui-settings-file value="../../SunwaySmallMap/osm.view.xml"/>
    </gui_only>

</sumoConfiguration>
-->

<tripinfos xmlns:xsi="http://www.w3.org/2001/XMLSchema-instance" xsi:noNamespaceSchemaLocation="http://sumo.dlr.de/xsd/tripinfo_file.xsd">
    <personinfo id="0" depart="140.00" type="DEFAULT_PEDTYPE" speedFactor="1.06" duration="574.00" waitingTime="115.00" timeLoss="89.10" traveltime="459.00">
        <ride waitingTime="115.00" vehicle="t_4" depart="255.00" arrival="714.00" arrivalPos="7.94" duration="459.00" routeLength="5219.86" timeLoss="89.10"/>
    </personinfo>
    <personinfo id="2" depart="573.00" type="DEFAULT_PEDTYPE" speedFactor="1.01" duration="477.00" waitingTime="110.00" timeLoss="77.64" traveltime="367.00">
        <ride waitingTime="110.00" vehicle="t_2" depart="683.00" arrival="1050.00" arrivalPos="20.31" duration="367.00" routeLength="5366.44" timeLoss="77.64"/>
    </personinfo>
    <personinfo id="1" depart="540.00" type="DEFAULT_PEDTYPE" speedFactor="0.88" duration="520.00" waitingTime="53.00" timeLoss="64.89" traveltime="467.00">
        <ride waitingTime="53.00" vehicle="t_0" depart="593.00" arrival="1060.00" arrivalPos="110.18" duration="467.00" routeLength="5946.85" timeLoss="64.89"/>
    </personinfo>
    <personinfo id="4" depart="693.00" type="DEFAULT_PEDTYPE" speedFactor="1.03" duration="537.00" waitingTime="69.00" timeLoss="129.67" traveltime="468.00">
        <ride waitingTime="69.00" vehicle="t_3" depart="762.00" arrival="1230.00" arrivalPos="28.18" duration="468.00" routeLength="5568.44" timeLoss="129.67"/>
    </personinfo>
    <personinfo id="3" depart="644.00" type="DEFAULT_PEDTYPE" speedFactor="1.09" duration="671.00" waitingTime="249.00" timeLoss="72.92" traveltime="422.00">
        <ride waitingTime="249.00" vehicle="t_4" depart="893.00" arrival="1315.00" arrivalPos="45.67" duration="422.00" routeLength="5465.01" timeLoss="72.92"/>
    </personinfo>
    <personinfo id="5" depart="990.00" type="DEFAULT_PEDTYPE" speedFactor="1.00" duration="555.00" waitingTime="146.00" timeLoss="78.59" traveltime="409.00">
        <ride waitingTime="146.00" vehicle="t_13" depart="1136.00" arrival="1545.00" arrivalPos="59.39" duration="409.00" routeLength="5046.94" timeLoss="78.59"/>
    </personinfo>
    <personinfo id="6" depart="1018.00" type="DEFAULT_PEDTYPE" speedFactor="1.08" duration="628.00" waitingTime="223.00" timeLoss="60.30" traveltime="405.00">
        <ride waitingTime="223.00" vehicle="t_7" depart="1241.00" arrival="1646.00" arrivalPos="34.06" duration="405.00" routeLength="5173.05" timeLoss="60.30"/>
    </personinfo>
    <personinfo id="7" depart="1372.00" type="DEFAULT_PEDTYPE" speedFactor="1.04" duration="492.00" waitingTime="90.00" timeLoss="50.71" traveltime="402.00">
        <ride waitingTime="90.00" vehicle="t_4" depart="1462.00" arrival="1864.00" arrivalPos="73.66" duration="402.00" routeLength="5789.31" timeLoss="50.71"/>
    </personinfo>
    <personinfo id="8" depart="1724.00" type="DEFAULT_PEDTYPE" speedFactor="1.14" duration="601.00" waitingTime="181.00" timeLoss="62.51" traveltime="420.00">
        <ride waitingTime="181.00" vehicle="t_4" depart="1905.00" arrival="2325.00" arrivalPos="77.94" duration="420.00" routeLength="5166.64" timeLoss="62.51"/>
    </personinfo>
    <personinfo id="9" depart="1878.00" type="DEFAULT_PEDTYPE" speedFactor="0.97" duration="564.00" waitingTime="173.00" timeLoss="57.53" traveltime="391.00">
        <ride waitingTime="173.00" vehicle="t_3" depart="2051.00" arrival="2442.00" arrivalPos="22.44" duration="391.00" routeLength="6206.59" timeLoss="57.53"/>
    </personinfo>
    <personinfo id="12" depart="2089.00" type="DEFAULT_PEDTYPE" speedFactor="1.13" duration="509.00" waitingTime="121.00" timeLoss="62.33" traveltime="388.00">
        <ride waitingTime="121.00" vehicle="t_12" depart="2210.00" arrival="2598.00" arrivalPos="57.81" duration="388.00" routeLength="5722.32" timeLoss="62.33"/>
    </personinfo>
    <personinfo id="11" depart="2003.00" type="DEFAULT_PEDTYPE" speedFactor="1.09" duration="692.00" waitingTime="257.00" timeLoss="94.10" traveltime="435.00">
        <ride waitingTime="257.00" vehicle="t_7" depart="2260.00" arrival="2695.00" arrivalPos="106.24" duration="435.00" routeLength="5098.94" timeLoss="94.10"/>
    </personinfo>
    <personinfo id="13" depart="2182.00" type="DEFAULT_PEDTYPE" speedFactor="1.03" duration="620.00" waitingTime="190.00" timeLoss="85.68" traveltime="430.00">
        <ride waitingTime="190.00" vehicle="t_4" depart="2372.00" arrival="2802.00" arrivalPos="93.30" duration="430.00" routeLength="4959.97" timeLoss="85.68"/>
    </personinfo>
    <personinfo id="10" depart="1964.00" type="DEFAULT_PEDTYPE" speedFactor="1.09" duration="839.00" waitingTime="231.00" timeLoss="121.74" traveltime="608.00">
        <ride waitingTime="231.00" vehicle="t_7" depart="2195.00" arrival="2803.00" arrivalPos="189.02" duration="608.00" routeLength="6043.72" timeLoss="121.74"/>
    </personinfo>
    <personinfo id="14" depart="2368.00" type="DEFAULT_PEDTYPE" speedFactor="1.00" duration="878.00" waitingTime="413.00" timeLoss="113.99" traveltime="465.00">
        <ride waitingTime="413.00" vehicle="t_12" depart="2781.00" arrival="3246.00" arrivalPos="239.13" duration="465.00" routeLength="6185.31" timeLoss="113.99"/>
    </personinfo>
    <personinfo id="15" depart="3358.00" type="DEFAULT_PEDTYPE" speedFactor="1.14" duration="616.00" waitingTime="268.00" timeLoss="50.20" traveltime="348.00">
        <ride waitingTime="268.00" vehicle="t_12" depart="3626.00" arrival="3974.00" arrivalPos="22.26" duration="348.00" routeLength="5449.52" timeLoss="50.20"/>
    </personinfo>
    <personinfo id="17" depart="3697.00" type="DEFAULT_PEDTYPE" speedFactor="0.92" duration="567.00" waitingTime="134.00" timeLoss="122.72" traveltime="433.00">
        <ride waitingTime="134.00" vehicle="t_1" depart="3831.00" arrival="4264.00" arrivalPos="246.07" duration="433.00" routeLength="5041.44" timeLoss="122.72"/>
    </personinfo>
    <personinfo id="16" depart="3529.00" type="DEFAULT_PEDTYPE" speedFactor="1.00" duration="992.00" waitingTime="265.00" timeLoss="194.50" traveltime="727.00">
        <ride waitingTime="265.00" vehicle="t_1" depart="3794.00" arrival="4521.00" arrivalPos="31.27" duration="727.00" routeLength="7249.04" timeLoss="194.50"/>
    </personinfo>
    <personinfo id="19" depart="4525.00" type="DEFAULT_PEDTYPE" speedFactor="0.99" duration="485.00" waitingTime="69.00" timeLoss="119.59" traveltime="416.00">
        <ride waitingTime="69.00" vehicle="t_2" depart="4594.00" arrival="5010.00" arrivalPos="28.72" duration="416.00" routeLength="4766.02" timeLoss="119.59"/>
    </personinfo>
    <personinfo id="20" depart="4557.00" type="DEFAULT_PEDTYPE" speedFactor="1.25" duration="502.00" waitingTime="27.00" timeLoss="125.40" traveltime="475.00">
        <ride waitingTime="27.00" vehicle="t_14" depart="4584.00" arrival="5059.00" arrivalPos="42.17" duration="475.00" routeLength="6005.93" timeLoss="125.40"/>
    </personinfo>
    <personinfo id="18" depart="4295.00" type="DEFAULT_PEDTYPE" speedFactor="1.18" duration="795.00" waitingTime="299.00" timeLoss="66.17" traveltime="496.00">
        <ride waitingTime="299.00" vehicle="t_13" depart="4594.00" arrival="5090.00" arrivalPos="55.26" duration="496.00" routeLength="6934.40" timeLoss="66.17"/>
    </personinfo>
    <personinfo id="23" depart="4762.00" type="DEFAULT_PEDTYPE" speedFactor="1.10" duration="490.00" waitingTime="37.00" timeLoss="118.39" traveltime="453.00">
        <ride waitingTime="37.00" vehicle="t_12" depart="4799.00" arrival="5252.00" arrivalPos="63.63" duration="453.00" routeLength="6169.53" timeLoss="118.39"/>
    </personinfo>
    <personinfo id="21" depart="4723.00" type="DEFAULT_PEDTYPE" speedFactor="1.04" duration="536.00" waitingTime="191.00" timeLoss="85.58" traveltime="345.00">
        <ride waitingTime="191.00" vehicle="t_1" depart="4914.00" arrival="5259.00" arrivalPos="31.71" duration="345.00" routeLength="4690.41" timeLoss="85.58"/>
    </personinfo>
    <personinfo id="22" depart="4737.00" type="DEFAULT_PEDTYPE" speedFactor="0.90" duration="653.00" waitingTime="278.00" timeLoss="44.86" traveltime="375.00">
        <ride waitingTime="278.00" vehicle="t_9" depart="5015.00" arrival="5390.00" arrivalPos="86.64" duration="375.00" routeLength="4881.29" timeLoss="44.86"/>
    </personinfo>
    <personinfo id="25" depart="4923.00" type="DEFAULT_PEDTYPE" speedFactor="1.05" duration="530.00" waitingTime="217.00" timeLoss="47.08" traveltime="313.00">
        <ride waitingTime="217.00" vehicle="t_2" depart="5140.00" arrival="5453.00" arrivalPos="41.48" duration="313.00" routeLength="4912.02" timeLoss="47.08"/>
    </personinfo>
    <personinfo id="26" depart="4947.00" type="DEFAULT_PEDTYPE" speedFactor="0.88" duration="571.00" waitingTime="138.00" timeLoss="76.30" traveltime="433.00">
        <ride waitingTime="138.00" vehicle="t_14" depart="5085.00" arrival="5518.00" arrivalPos="193.08" duration="433.00" routeLength="5505.03" timeLoss="76.30"/>
    </personinfo>
    <personinfo id="24" depart="4821.00" type="DEFAULT_PEDTYPE" speedFactor="1.07" duration="717.00" waitingTime="277.00" timeLoss="75.55" traveltime="440.00">
        <ride waitingTime="277.00" vehicle="t_6" depart="5098.00" arrival="5538.00" arrivalPos="74.44" duration="440.00" routeLength="6003.30" timeLoss="75.55"/>
    </personinfo>
    <personinfo id="27" depart="5028.00" type="DEFAULT_PEDTYPE" speedFactor="0.90" duration="565.00" waitingTime="141.00" timeLoss="128.81" traveltime="424.00">
        <ride waitingTime="141.00" vehicle="t_13" depart="5169.00" arrival="5593.00" arrivalPos="3.61" duration="424.00" routeLength="5835.57" timeLoss="128.81"/>
    </personinfo>
    <personinfo id="28" depart="5327.00" type="DEFAULT_PEDTYPE" speedFactor="0.97" duration="557.00" waitingTime="186.00" timeLoss="62.83" traveltime="371.00">
        <ride waitingTime="186.00" vehicle="t_9" depart="5513.00" arrival="5884.00" arrivalPos="44.28" duration="371.00" routeLength="5274.45" timeLoss="62.83"/>
    </personinfo>
    <personinfo id="31" depart="5767.00" type="DEFAULT_PEDTYPE" speedFactor="1.02" duration="459.00" waitingTime="39.00" timeLoss="111.37" traveltime="420.00">
        <ride waitingTime="39.00" vehicle="t_5" depart="5806.00" arrival="6226.00" arrivalPos="82.96" duration="420.00" routeLength="5294.58" timeLoss="111.37"/>
    </personinfo>
    <personinfo id="32" depart="5783.00" type="DEFAULT_PEDTYPE" speedFactor="0.80" duration="444.00" waitingTime="38.00" timeLoss="92.47" traveltime="406.00">
        <ride waitingTime="38.00" vehicle="t_12" depart="5821.00" arrival="6227.00" arrivalPos="203.88" duration="406.00" routeLength="5270.40" timeLoss="92.47"/>
    </personinfo>
    <personinfo id="33" depart="5941.00" type="DEFAULT_PEDTYPE" speedFactor="1.08" duration="383.00" waitingTime="49.00" timeLoss="65.83" traveltime="334.00">
        <ride waitingTime="49.00" vehicle="t_3" depart="5990.00" arrival="6324.00" arrivalPos="42.41" duration="334.00" routeLength="4398.51" timeLoss="65.83"/>
    </personinfo>
    <personinfo id="30" depart="5721.00" type="DEFAULT_PEDTYPE" speedFactor="0.89" duration="633.00" waitingTime="159.00" timeLoss="96.69" traveltime="474.00">
        <ride waitingTime="159.00" vehicle="t_14" depart="5880.00" arrival="6354.00" arrivalPos="82.04" duration="474.00" routeLength="6545.59" timeLoss="96.69"/>
    </personinfo>
    <personinfo id="34" depart="6004.00" type="DEFAULT_PEDTYPE" speedFactor="0.81" duration="438.00" waitingTime="47.00" timeLoss="84.30" traveltime="391.00">
        <ride waitingTime="47.00" vehicle="t_9" depart="6051.00" arrival="6442.00" arrivalPos="54.47" duration="391.00" routeLength="4901.13" timeLoss="84.30"/>
    </personinfo>
    <personinfo id="29" depart="5675.00" type="DEFAULT_PEDTYPE" speedFactor="1.00" duration="880.00" waitingTime="268.00" timeLoss="128.07" traveltime="612.00">
        <ride waitingTime="268.00" vehicle="t_9" depart="5943.00" arrival="6555.00" arrivalPos="26.87" duration="612.00" routeLength="6690.92" timeLoss="128.07"/>
    </personinfo>
    <personinfo id="35" depart="6251.00" type="DEFAULT_PEDTYPE" speedFactor="1.02" duration="628.00" waitingTime="252.00" timeLoss="60.87" traveltime="376.00">
        <ride waitingTime="252.00" vehicle="t_3" depart="6503.00" arrival="6879.00" arrivalPos="56.46" duration="376.00" routeLength="5058.39" timeLoss="60.87"/>
    </personinfo>
    <personinfo id="37" depart="6814.00" type="DEFAULT_PEDTYPE" speedFactor="0.98" duration="386.00" waitingTime="22.00" timeLoss="42.47" traveltime="364.00">
        <ride waitingTime="22.00" vehicle="t_2" depart="6836.00" arrival="7200.00" arrivalPos="47.96" duration="364.00" routeLength="5650.39" timeLoss="42.47"/>
    </personinfo>
    <personinfo id="36" depart="6797.00" type="DEFAULT_PEDTYPE" speedFactor="1.00" duration="640.00" waitingTime="241.00" timeLoss="62.56" traveltime="399.00">
        <ride waitingTime="241.00" vehicle="t_3" depart="7038.00" arrival="7437.00" arrivalPos="184.40" duration="399.00" routeLength="5479.20" timeLoss="62.56"/>
    </personinfo>
    <personinfo id="39" depart="7349.00" type="DEFAULT_PEDTYPE" speedFactor="0.94" duration="438.00" waitingTime="52.00" timeLoss="58.53" traveltime="386.00">
        <ride waitingTime="52.00" vehicle="t_14" depart="7401.00" arrival="7787.00" arrivalPos="24.12" duration="386.00" routeLength="5370.35" timeLoss="58.53"/>
    </personinfo>
    <personinfo id="38" depart="7270.00" type="DEFAULT_PEDTYPE" speedFactor="0.94" duration="644.00" waitingTime="235.00" timeLoss="49.11" traveltime="409.00">
        <ride waitingTime="235.00" vehicle="t_3" depart="7505.00" arrival="7914.00" arrivalPos="690.16" duration="409.00" routeLength="4609.68" timeLoss="49.11"/>
    </personinfo>
    <personinfo id="40" depart="7880.00" type="DEFAULT_PEDTYPE" speedFactor="1.11" duration="453.00" waitingTime="37.00" timeLoss="91.42" traveltime="416.00">
        <ride waitingTime="37.00" vehicle="t_14" depart="7917.00" arrival="8333.00" arrivalPos="114.31" duration="416.00" routeLength="5316.87" timeLoss="91.42"/>
    </personinfo>
    <personinfo id="41" depart="7996.00" type="DEFAULT_PEDTYPE" speedFactor="0.89" duration="463.00" waitingTime="81.00" timeLoss="69.44" traveltime="382.00">
        <ride waitingTime="81.00" vehicle="t_13" depart="8077.00" arrival="8459.00" arrivalPos="100.26" duration="382.00" routeLength="5579.13" timeLoss="69.44"/>
    </personinfo>
    <personinfo id="43" depart="8196.00" type="DEFAULT_PEDTYPE" speedFactor="0.88" duration="416.00" waitingTime="30.00" timeLoss="91.40" traveltime="386.00">
        <ride waitingTime="30.00" vehicle="t_2" depart="8226.00" arrival="8612.00" arrivalPos="77.59" duration="386.00" routeLength="5245.61" timeLoss="91.40"/>
    </personinfo>
    <personinfo id="44" depart="8243.00" type="DEFAULT_PEDTYPE" speedFactor="0.90" duration="438.00" waitingTime="70.00" timeLoss="38.92" traveltime="368.00">
        <ride waitingTime="70.00" vehicle="t_5" depart="8313.00" arrival="8681.00" arrivalPos="23.00" duration="368.00" routeLength="5815.64" timeLoss="38.92"/>
    </personinfo>
    <personinfo id="42" depart="8176.00" type="DEFAULT_PEDTYPE" speedFactor="0.92" duration="633.00" waitingTime="188.00" timeLoss="108.52" traveltime="445.00">
        <ride waitingTime="188.00" vehicle="t_14" depart="8364.00" arrival="8809.00" arrivalPos="199.40" duration="445.00" routeLength="5249.78" timeLoss="108.52"/>
    </personinfo>
    <personinfo id="46" depart="8627.00" type="DEFAULT_PEDTYPE" speedFactor="0.84" duration="405.00" waitingTime="55.00" timeLoss="84.46" traveltime="350.00">
        <ride waitingTime="55.00" vehicle="t_3" depart="8682.00" arrival="9032.00" arrivalPos="72.80" duration="350.00" routeLength="4735.86" timeLoss="84.46"/>
    </personinfo>
    <personinfo id="45" depart="8546.00" type="DEFAULT_PEDTYPE" speedFactor="0.90" duration="544.00" waitingTime="171.00" timeLoss="77.14" traveltime="373.00">
        <ride waitingTime="171.00" vehicle="t_5" depart="8717.00" arrival="9090.00" arrivalPos="28.72" duration="373.00" routeLength="4679.30" timeLoss="77.14"/>
    </personinfo>
    <personinfo id="47" depart="9114.00" type="DEFAULT_PEDTYPE" speedFactor="0.80" duration="530.00" waitingTime="103.00" timeLoss="93.13" traveltime="427.00">
        <ride waitingTime="103.00" vehicle="t_1" depart="9217.00" arrival="9644.00" arrivalPos="122.59" duration="427.00" routeLength="5348.85" timeLoss="93.13"/>
    </personinfo>
    <personinfo id="48" depart="9119.00" type="DEFAULT_PEDTYPE" speedFactor="0.94" duration="541.00" waitingTime="132.00" timeLoss="73.53" traveltime="409.00">
        <ride waitingTime="132.00" vehicle="t_3" depart="9251.00" arrival="9660.00" arrivalPos="43.01" duration="409.00" routeLength="5822.21" timeLoss="73.53"/>
    </personinfo>
    <personinfo id="49" depart="9911.00" type="DEFAULT_PEDTYPE" speedFactor="0.96" duration="584.00" waitingTime="211.00" timeLoss="70.06" traveltime="373.00">
        <ride waitingTime="211.00" vehicle="t_5" depart="10122.00" arrival="10495.00" arrivalPos="23.55" duration="373.00" routeLength="5473.29" timeLoss="70.06"/>
    </personinfo>
    <personinfo id="50" depart="10916.00" type="DEFAULT_PEDTYPE" speedFactor="0.84" duration="588.00" waitingTime="172.00" timeLoss="84.59" traveltime="416.00">
        <ride waitingTime="172.00" vehicle="t_2" depart="11088.00" arrival="11504.00" arrivalPos="260.29" duration="416.00" routeLength="6217.75" timeLoss="84.59"/>
    </personinfo>
    <personinfo id="51" depart="11006.00" type="DEFAULT_PEDTYPE" speedFactor="0.99" duration="526.00" waitingTime="50.00" timeLoss="118.90" traveltime="476.00">
        <ride waitingTime="50.00" vehicle="t_13" depart="11056.00" arrival="11532.00" arrivalPos="48.64" duration="476.00" routeLength="6207.86" timeLoss="118.90"/>
    </personinfo>
    <personinfo id="52" depart="11429.00" type="DEFAULT_PEDTYPE" speedFactor="1.04" duration="561.00" waitingTime="154.00" timeLoss="91.14" traveltime="407.00">
        <ride waitingTime="154.00" vehicle="t_13" depart="11583.00" arrival="11990.00" arrivalPos="18.86" duration="407.00" routeLength="5184.91" timeLoss="91.14"/>
    </personinfo>
    <personinfo id="53" depart="11583.00" type="DEFAULT_PEDTYPE" speedFactor="1.05" duration="680.00" waitingTime="278.00" timeLoss="54.41" traveltime="402.00">
        <ride waitingTime="278.00" vehicle="t_9" depart="11861.00" arrival="12263.00" arrivalPos="205.64" duration="402.00" routeLength="6335.70" timeLoss="54.41"/>
    </personinfo>
    <personinfo id="56" depart="12030.00" type="DEFAULT_PEDTYPE" speedFactor="1.03" duration="621.00" waitingTime="202.00" timeLoss="86.31" traveltime="419.00">
        <ride waitingTime="202.00" vehicle="t_1" depart="12232.00" arrival="12651.00" arrivalPos="20.12" duration="419.00" routeLength="5744.98" timeLoss="86.31"/>
    </personinfo>
    <personinfo id="55" depart="11924.00" type="DEFAULT_PEDTYPE" speedFactor="0.84" duration="866.00" waitingTime="437.00" timeLoss="55.57" traveltime="429.00">
        <ride waitingTime="437.00" vehicle="t_13" depart="12361.00" arrival="12790.00" arrivalPos="64.07" duration="429.00" routeLength="5461.38" timeLoss="55.57"/>
    </personinfo>
    <personinfo id="54" depart="11771.00" type="DEFAULT_PEDTYPE" speedFactor="0.98" duration="1033.00" waitingTime="287.00" timeLoss="151.13" traveltime="746.00">
        <ride waitingTime="287.00" vehicle="t_1" depart="12058.00" arrival="12804.00" arrivalPos="28.70" duration="746.00" routeLength="9135.39" timeLoss="151.13"/>
    </personinfo>
    <personinfo id="59" depart="12627.00" type="DEFAULT_PEDTYPE" speedFactor="0.91" duration="534.00" waitingTime="112.00" timeLoss="87.77" traveltime="422.00">
        <ride waitingTime="112.00" vehicle="t_9" depart="12739.00" arrival="13161.00" arrivalPos="47.02" duration="422.00" routeLength="5880.11" timeLoss="87.77"/>
    </personinfo>
    <personinfo id="58" depart="12471.00" type="DEFAULT_PEDTYPE" speedFactor="1.19" duration="710.00" waitingTime="305.00" timeLoss="96.09" traveltime="405.00">
        <ride waitingTime="305.00" vehicle="t_7" depart="12776.00" arrival="13181.00" arrivalPos="87.89" duration="405.00" routeLength="5327.36" timeLoss="96.09"/>
    </personinfo>
    <personinfo id="57" depart="12126.00" type="DEFAULT_PEDTYPE" speedFactor="0.95" duration="1169.00" waitingTime="454.00" timeLoss="143.98" traveltime="715.00">
        <ride waitingTime="454.00" vehicle="t_9" depart="12580.00" arrival="13295.00" arrivalPos="90.43" duration="715.00" routeLength="9040.16" timeLoss="143.98"/>
    </personinfo>
    <personinfo id="62" depart="13157.00" type="DEFAULT_PEDTYPE" speedFactor="0.93" duration="515.00" waitingTime="138.00" timeLoss="40.78" traveltime="377.00">
        <ride waitingTime="138.00" vehicle="t_13" depart="13295.00" arrival="13672.00" arrivalPos="24.01" duration="377.00" routeLength="5631.27" timeLoss="40.78"/>
    </personinfo>
    <personinfo id="60" depart="12728.00" type="DEFAULT_PEDTYPE" speedFactor="0.96" duration="1073.00" waitingTime="321.00" timeLoss="151.85" traveltime="752.00">
        <ride waitingTime="321.00" vehicle="t_13" depart="13049.00" arrival="13801.00" arrivalPos="194.06" duration="752.00" routeLength="9467.06" timeLoss="151.85"/>
    </personinfo>
    <personinfo id="61" depart="13040.00" type="DEFAULT_PEDTYPE" speedFactor="0.77" duration="767.00" waitingTime="310.00" timeLoss="94.09" traveltime="457.00">
        <ride waitingTime="310.00" vehicle="t_7" depart="13350.00" arrival="13807.00" arrivalPos="21.22" duration="457.00" routeLength="6362.56" timeLoss="94.09"/>
    </personinfo>
    <personinfo id="63" depart="13360.00" type="DEFAULT_PEDTYPE" speedFactor="0.89" duration="452.00" waitingTime="58.00" timeLoss="79.11" traveltime="394.00">
        <ride waitingTime="58.00" vehicle="t_11" depart="13418.00" arrival="13812.00" arrivalPos="82.04" duration="394.00" routeLength="5353.71" timeLoss="79.11"/>
    </personinfo>
    <personinfo id="64" depart="13553.00" type="DEFAULT_PEDTYPE" speedFactor="1.07" duration="507.00" waitingTime="23.00" timeLoss="116.94" traveltime="484.00">
        <ride waitingTime="23.00" vehicle="t_6" depart="13576.00" arrival="14060.00" arrivalPos="31.59" duration="484.00" routeLength="5204.86" timeLoss="116.94"/>
    </personinfo>
    <personinfo id="66" depart="13812.00" type="DEFAULT_PEDTYPE" speedFactor="1.09" duration="450.00" waitingTime="18.00" timeLoss="121.57" traveltime="432.00">
        <ride waitingTime="18.00" vehicle="t_13" depart="13830.00" arrival="14262.00" arrivalPos="0.20" duration="432.00" routeLength="5164.27" timeLoss="121.57"/>
    </personinfo>
    <personinfo id="65" depart="13731.00" type="DEFAULT_PEDTYPE" speedFactor="1.08" duration="560.00" waitingTime="148.00" timeLoss="72.96" traveltime="412.00">
        <ride waitingTime="148.00" vehicle="t_11" depart="13879.00" arrival="14291.00" arrivalPos="74.44" duration="412.00" routeLength="5921.75" timeLoss="72.96"/>
    </personinfo>
    <personinfo id="67" depart="13824.00" type="DEFAULT_PEDTYPE" speedFactor="0.98" duration="494.00" waitingTime="53.00" timeLoss="82.20" traveltime="441.00">
        <ride waitingTime="53.00" vehicle="t_1" depart="13877.00" arrival="14318.00" arrivalPos="45.44" duration="441.00" routeLength="6325.02" timeLoss="82.20"/>
    </personinfo>
    <personinfo id="68" depart="13998.00" type="DEFAULT_PEDTYPE" speedFactor="0.83" duration="682.00" waitingTime="222.00" timeLoss="83.39" traveltime="460.00">
        <ride waitingTime="222.00" vehicle="t_6" depart="14220.00" arrival="14680.00" arrivalPos="21.89" duration="460.00" routeLength="5677.45" timeLoss="83.39"/>
    </personinfo>
    <personinfo id="70" depart="14157.00" type="DEFAULT_PEDTYPE" speedFactor="1.04" duration="674.00" waitingTime="228.00" timeLoss="117.70" traveltime="446.00">
        <ride waitingTime="228.00" vehicle="t_11" depart="14385.00" arrival="14831.00" arrivalPos="114.31" duration="446.00" routeLength="5174.87" timeLoss="117.70"/>
    </personinfo>
    <personinfo id="69" depart="14038.00" type="DEFAULT_PEDTYPE" speedFactor="1.06" duration="812.00" waitingTime="394.00" timeLoss="45.34" traveltime="418.00">
        <ride waitingTime="394.00" vehicle="t_13" depart="14432.00" arrival="14850.00" arrivalPos="217.94" duration="418.00" routeLength="6039.99" timeLoss="45.34"/>
    </personinfo>
    <personinfo id="71" depart="14617.00" type="DEFAULT_PEDTYPE" speedFactor="1.19" duration="601.00" waitingTime="180.00" timeLoss="111.25" traveltime="421.00">
        <ride waitingTime="180.00" vehicle="t_6" depart="14797.00" arrival="15218.00" arrivalPos="60.44" duration="421.00" routeLength="4934.07" timeLoss="111.25"/>
    </personinfo>
    <personinfo id="72" depart="14788.00" type="DEFAULT_PEDTYPE" speedFactor="0.87" duration="551.00" waitingTime="126.00" timeLoss="63.98" traveltime="425.00">
        <ride waitingTime="126.00" vehicle="t_13" depart="14914.00" arrival="15339.00" arrivalPos="58.90" duration="425.00" routeLength="5902.84" timeLoss="63.98"/>
    </personinfo>
    <personinfo id="73" depart="15080.00" type="DEFAULT_PEDTYPE" speedFactor="1.07" duration="429.00" waitingTime="43.00" timeLoss="84.61" traveltime="386.00">
        <ride waitingTime="43.00" vehicle="t_7" depart="15123.00" arrival="15509.00" arrivalPos="22.40" duration="386.00" routeLength="5065.36" timeLoss="84.61"/>
    </personinfo>
    <personinfo id="74" depart="15219.00" type="DEFAULT_PEDTYPE" speedFactor="1.00" duration="686.00" waitingTime="262.00" timeLoss="78.64" traveltime="424.00">
        <ride waitingTime="262.00" vehicle="t_13" depart="15481.00" arrival="15905.00" arrivalPos="18.94" duration="424.00" routeLength="5515.32" timeLoss="78.64"/>
    </personinfo>
    <personinfo id="75" depart="15749.00" type="DEFAULT_PEDTYPE" speedFactor="1.00" duration="467.00" waitingTime="61.00" timeLoss="94.66" traveltime="406.00">
        <ride waitingTime="61.00" vehicle="t_1" depart="15810.00" arrival="16216.00" arrivalPos="43.39" duration="406.00" routeLength="5024.08" timeLoss="94.66"/>
    </personinfo>
    <personinfo id="76" depart="15762.00" type="DEFAULT_PEDTYPE" speedFactor="0.79" duration="652.00" waitingTime="200.00" timeLoss="116.15" traveltime="452.00">
        <ride waitingTime="200.00" vehicle="t_13" depart="15962.00" arrival="16414.00" arrivalPos="58.90" duration="452.00" routeLength="5874.41" timeLoss="116.15"/>
    </personinfo>
    <personinfo id="77" depart="15908.00" type="DEFAULT_PEDTYPE" speedFactor="1.02" duration="512.00" waitingTime="37.00" timeLoss="125.19" traveltime="475.00">
        <ride waitingTime="37.00" vehicle="t_9" depart="15945.00" arrival="16420.00" arrivalPos="64.07" duration="475.00" routeLength="6323.84" timeLoss="125.19"/>
    </personinfo>
    <personinfo id="78" depart="16762.00" type="DEFAULT_PEDTYPE" speedFactor="0.95" duration="528.00" waitingTime="80.00" timeLoss="152.18" traveltime="448.00">
        <ride waitingTime="80.00" vehicle="t_10" depart="16842.00" arrival="17290.00" arrivalPos="77.52" duration="448.00" routeLength="5523.36" timeLoss="152.18"/>
    </personinfo>
    <personinfo id="81" depart="17434.00" type="DEFAULT_PEDTYPE" speedFactor="0.95" duration="445.00" waitingTime="65.00" timeLoss="51.78" traveltime="380.00">
        <ride waitingTime="65.00" vehicle="t_10" depart="17499.00" arrival="17879.00" arrivalPos="476.74" duration="380.00" routeLength="5463.56" timeLoss="51.78"/>
    </personinfo>
    <personinfo id="82" depart="17484.00" type="DEFAULT_PEDTYPE" speedFactor="0.97" duration="551.00" waitingTime="119.00" timeLoss="114.68" traveltime="432.00">
        <ride waitingTime="119.00" vehicle="t_9" depart="17603.00" arrival="18035.00" arrivalPos="25.33" duration="432.00" routeLength="5615.50" timeLoss="114.68"/>
    </personinfo>
    <personinfo id="79" depart="17109.00" type="DEFAULT_PEDTYPE" speedFactor="0.99" duration="947.00" waitingTime="240.00" timeLoss="100.30" traveltime="707.00">
        <ride waitingTime="240.00" vehicle="t_10" depart="17349.00" arrival="18056.00" arrivalPos="106.24" duration="707.00" routeLength="9195.50" timeLoss="100.30"/>
    </personinfo>
    <personinfo id="80" depart="17406.00" type="DEFAULT_PEDTYPE" speedFactor="0.93" duration="864.00" waitingTime="142.00" timeLoss="157.40" traveltime="722.00">
        <ride waitingTime="142.00" vehicle="t_9" depart="17548.00" arrival="18270.00" arrivalPos="23.00" duration="722.00" routeLength="7828.26" timeLoss="157.40"/>
    </personinfo>